<KeysViewHDF5 ['ABINIT', 'ABINIT-MP', 'ADF', 'AFLOWLIB', 'ALAMODE', 'ALF (Algorithms for Lattice Fermions)', 'ALPS', 'AMULET', 'ATAT', 'AVS', 'Advance', 'AkaiKKR', 'Amber', 'ArgusLab', 'Atomic Simulation Environment (ASE)', 'Atomistix Toolkit (ATK)', 'Avogadro', 'BLOCK', 'BSA', 'Bader Charge Analysis', 'BerkeleyGW', 'BigDFT', 'Bilbao Crystallographic Server', 'Blueqat', 'BoltzTraP2', 'C-Tools', 'CASINO', 'CASTEP', 'CCCM', 'CHARMM', 'CIF2Cell', 'CLUPAN', 'COMmon Bayesian Optimization Library (COMBO)', 'CONQUEST', 'CP2K', 'CPMD', 'CRYSTAL', 'CTM4XAS', 'Caffe', 'Calypso', 'Cambridge Structure Database (CSD)', 'Chainer', 'ChemBio3D', 'Cirq', 'ComDMFT', 'CrySPY', 'Crystallography Open Database', 'DC', 'DC-DFTB-MD', 'DCA++', 'DCore', 'DDMRG', 'DFTB+', 'DISCUS', 'DMOL3', 'DMRG++', 'DSQSS', 'DV-XÎ±', 'Demeter', 'DiffPy', 'DiracQ', 'EDlib', 'ELSES', 'ERmod', 'EVO', 'EigenKernel', 'Elastic', 'Elk', 'EnSight', 'Exabyte.io', 'FDMNES', 'FEFF', 'FEMME', 'FHI-aims', 'FLEUR', 'FMO in GAMESS', 'FPLO', 'FPMS', 'Facio', 'FermiSurfer', 'FieldView', 'Firefly', 'Flexible DM-NRG', 'FullProf', 'GAMESS-UK', 'GAMESS-US', 'GASP', 'GENESIS', 'GISP', 'GNXAS', 'GPAW', 'GSAS-II', 'GSYS', 'GULP', 'GaussView', 'Gaussian', 'Gromacs', 'HOOMD-blue', 'HORTON', 'Harlem', 'HiLAPW', 'HÎ¦', 'ICSD', 'IFEFFIT', 'ITensor', 'Inelastica', 'J-OCTA', 'JDFTx', 'Jaguar', 'KOBEPACK', 'Keras', 'Kwant', 'KÏ‰', 'LAMMPS', 'LIQð‘ˆð‘–âã€‰ (Language-Integrated Quantum Operations, LIQUID)', 'LOBSTER', 'LibTetraBZ', 'Libxc', 'LmtART', 'M2TD', 'MARBLE', 'MDACP', 'MICRESS', 'MMSP', 'MODYLAS', 'MOPAC', 'MSC Nastran', 'MatNavi', 'MateriApps Installer', 'MateriApps LIVE!', 'Materials Project', 'Matrix Product Toolkit', 'Maxent', 'McPhase', 'Meep', 'Missing', 'Mm2cML', 'MolDS', 'Molcas', 'Molden', 'Molekel', 'Molpro', 'NAMD', 'NAP', 'NTChem', 'NWChem', 'Nano-Ignition', 'NetKet', 'OACIS', 'OCTA', 'ONETEP', 'ORCA', 'OVITO', 'Octopus', 'Open Babel', 'Open Source MPS', 'OpenDX', 'OpenFFT', 'OpenFOAM', 'OpenFermion', 'OpenKIM', 'OpenMX', 'OpenPhase', 'Osaka2k', 'PAICS', 'PARATEC', 'PFAPACK', 'PHASE', 'PIMD', 'PLUMED', 'PMlib', 'POV-Ray', 'ParaView', 'Parsec', 'Phonopy', 'PolyParGen', 'Pomerol', 'Protein Data Bank (PDB)', 'PyMOL', 'PySCF', 'PyTorch', 'Q-Chem', 'QCMaquis', 'QMAS', 'QMCPACK', 'QMCSGF', 'QTWARE', 'QUANTUM ESPRESSO', 'QWalk', 'Qbox', 'QuCumber', 'QuSpin', 'QuTiP', 'Quantum Unfolding', 'Questaal', 'Qulacs', 'RAQET', 'REM', 'RESPACK', 'RIETAN-FP', 'RISM', 'RSDFT', 'RSPACE', 'RSPt', 'Rasmol', 'Rokko', 'SALMON', 'SMASH', 'SPINPACK', 'SPRKKR', 'STATE', 'Siesta', 'SpM', 'Spin Glass Server', 'Superconducting Toolkit (sctk)', 'TAPIOCA', 'TINKER', 'TITPACK', 'TOMBO', 'TRIQS', 'TURBOMOLE', 'TeNeS', 'Tecplot', 'TensorFlow', 'Tensordot', 'Theano', 'Thermo-Calc', 'Torch', 'USPEX', 'VASP', 'VASP TST tools', 'VASPsol', 'VESTA', 'VMD', 'Vampire', 'VisBAR', 'WEST', 'WIEN2k', 'Wannier90', 'WannierTools', 'Winmostar', 'XCRYSDEN', 'XenonPy', 'XtalOpt', 'Yambo', 'Z2Pack', 'Zindaiji3', 'abICS', 'almaBTE', 'cdview', 'cuscalapack', 'ecalj', 'exciting', 'feram', 'fu-suite', 'i-PI', 'iqspr', 'k-ep', 'kmos', 'mVMC', 'mptensor', 'mumax3', 'myPresto', 'psi4', 'pymatgen', 'scikit-learn', 'snake-dmrg', 'w2dynamics', 'wxMacMolPlt', 'xTAPP', 'z-Pares']>
