<UPF version="2.0.1">
<PP_INFO>
Generated by new atomic code, or converted to UPF format
Author:
Generation date:
Pseudopotential type: NC
Element: C
Functional:  SLA  PW   PBX  PBC
Suggested minimum cutoff for wavefunctions:   0. Ry
Suggested minimum cutoff for charge density:   0. Ry
The Pseudo was generated with a Non-Relativistic Calculation
L component and cutoff radius for Local Potential:  0   0.0000
Pseudopotential contains additional information for GIPAW reconstruction.
Valence configuration:
nl pn  l   occ       Rcut    Rcut US       E pseu
2S  0  0  2.00      1.500      1.500     0.000000
3S  0  0  0.00      0.000      0.000     0.000000
2P  0  1  1.50      0.000      0.000     0.000000
3P  0  1  0.00      0.000      0.000     0.000000
Generation configuration: not available.
</PP_INFO>
<!--
END OF HUMAN READABLE SECTION
-->
<PP_HEADER 
author=""
has_wfc="false"
rho_cutoff="0.000000000000e0"
is_paw="false"
comment=""
element="C "
relativistic="no"
number_of_wfc="4"
has_gipaw="true"
paw_as_gipaw="false"
is_coulomb="false"
has_so="false"
l_local="0"
l_max_rho="0"
pseudo_type="NC"
total_psenergy="-1.044139757378e1"
core_correction="false"
generated="Generated by new atomic code, or converted to UPF format"
wfc_cutoff="0.000000000000e0"
l_max="1"
mesh_size="1073"
is_ultrasoft="false"
functional=" SLA  PW   PBX  PBC"
date=""
z_valence="4.000000000000e0"
number_of_proj="1"
/>
<PP_MESH dx="1.250000000000e-2" mesh="1073" xmin="-7.000000000003e0" rmax="1.003075063120e2" zmesh="6.000000000000e0">
<PP_R>
1.519803275920000e-4 1.538920047780000e-4 1.558277279030000e-4 1.577877994270000e-4
1.597725256160000e-4 1.617822165870000e-4 1.638171863580000e-4 1.658777528980000e-4
1.679642381750000e-4 1.700769682050000e-4 1.722162731080000e-4 1.743824871540000e-4
1.765759488180000e-4 1.787970008330000e-4 1.810459902440000e-4 1.833232684590000e-4
1.856291913070000e-4 1.879641190950000e-4 1.903284166580000e-4 1.927224534240000e-4
1.951466034650000e-4 1.976012455600000e-4 2.000867632520000e-4 2.026035449070000e-4
2.051519837790000e-4 2.077324780650000e-4 2.103454309740000e-4 2.129912507840000e-4
2.156703509110000e-4 2.183831499690000e-4 2.211300718380000e-4 2.239115457310001e-4
2.267280062580000e-4 2.295798934980000e-4 2.324676530630000e-4 2.353917361710000e-4
2.383525997180000e-4 2.413507063430000e-4 2.443865245070000e-4 2.474605285630000e-4
2.505731988300000e-4 2.537250216680000e-4 2.569164895579999e-4 2.601481011720000e-4
2.634203614560000e-4 2.667337817070000e-4 2.700888796550000e-4 2.734861795390000e-4
2.769262121960000e-4 2.804095151360000e-4 2.839366326340000e-4 2.875081158080000e-4
2.911245227100000e-4 2.947864184110000e-4 2.984943750900000e-4 3.022489721220000e-4
3.060507961710000e-4 3.099004412800000e-4 3.137985089630000e-4 3.177456083020000e-4
3.217423560380000e-4 3.257893766720000e-4 3.298873025590000e-4 3.340367740080000e-4
3.382384393830000e-4 3.424929552020000e-4 3.468009862420000e-4 3.511632056409999e-4
3.555802950060000e-4 3.600529445160000e-4 3.645818530300000e-4 3.691677282010000e-4
3.738112865810001e-4 3.785132537350000e-4 3.832743643540000e-4 3.880953623730000e-4
3.929770010820000e-4 3.979200432460000e-4 4.029252612270000e-4 4.079934371000000e-4
4.131253627780000e-4 4.183218401340000e-4 4.235836811280000e-4 4.289117079350000e-4
4.343067530680000e-4 4.397696595149999e-4 4.453012808670000e-4 4.509024814490000e-4
4.565741364610000e-4 4.623171321120000e-4 4.681323657540000e-4 4.740207460310001e-4
4.799831930150000e-4 4.860206383480000e-4 4.921340253960000e-4 4.983243093860001e-4
5.045924575630000e-4 5.109394493380001e-4 5.173662764420000e-4 5.238739430790000e-4
5.304634660850001e-4 5.371358750870002e-4 5.438922126629999e-4 5.507335345030000e-4
5.576609095789999e-4 5.646754203060000e-4 5.717781627159999e-4 5.789702466280000e-4
5.862527958189999e-4 5.936269482010001e-4 6.010938560029999e-4 6.086546859419999e-4
6.163106194140001e-4 6.240628526740000e-4 6.319125970249999e-4 6.398610790039999e-4
6.479095405790001e-4 6.560592393380000e-4 6.643114486879998e-4 6.726674580530000e-4
6.811285730770001e-4 6.896961158270000e-4 6.983714249969999e-4 7.071558561240000e-4
7.160507817920001e-4 7.250575918510000e-4 7.341776936350000e-4 7.434125121760000e-4
7.527634904350000e-4 7.622320895210000e-4 7.718197889220000e-4 7.815280867349999e-4
7.913584999020000e-4 8.013125644440001e-4 8.113918357050000e-4 8.215978885910001e-4
8.319323178179999e-4 8.423967381630002e-4 8.529927847120000e-4 8.637221131190000e-4
8.745863998640001e-4 8.855873425120000e-4 8.967266599849999e-4 9.080060928230001e-4
9.194274034600001e-4 9.309923765000001e-4 9.427028189920000e-4 9.545605607180001e-4
9.665674544740000e-4 9.787253763610002e-4 9.910362260790000e-4 1.003501927220000e-3
1.016124427590000e-3 1.028905699460000e-3 1.041847739940000e-3 1.054952571250000e-3
1.068222241040000e-3 1.081658822740000e-3 1.095264415820000e-3 1.109041146200000e-3
1.122991166510000e-3 1.137116656480000e-3 1.151419823240000e-3 1.165902901690000e-3
1.180568154840000e-3 1.195417874170000e-3 1.210454379970000e-3 1.225680021730000e-3
1.241097178490000e-3 1.256708259200000e-3 1.272515703140000e-3 1.288521980250000e-3
1.304729591540000e-3 1.321141069480000e-3 1.337758978400000e-3 1.354585914880000e-3
1.371624508170000e-3 1.388877420580000e-3 1.406347347910000e-3 1.424037019870000e-3
1.441949200520000e-3 1.460086688660000e-3 1.478452318320000e-3 1.497048959160000e-3
1.515879516950000e-3 1.534946933990000e-3 1.554254189620000e-3 1.573804300630000e-3
1.593600321760000e-3 1.613645346180000e-3 1.633942505970000e-3 1.654494972600000e-3
1.675305957440000e-3 1.696378712240000e-3 1.717716529670000e-3 1.739322743800000e-3
1.761200730640000e-3 1.783353908690000e-3 1.805785739410000e-3 1.828499727820000e-3
1.851499423040000e-3 1.874788418810000e-3 1.898370354090000e-3 1.922248913590000e-3
1.946427828400000e-3 1.970910876520000e-3 1.995701883470000e-3 2.020804722900000e-3
2.046223317180000e-3 2.071961638010000e-3 2.098023707070000e-3 2.124413596600000e-3
2.151135430080000e-3 2.178193382840000e-3 2.205591682760000e-3 2.233334610860000e-3
2.261426502030000e-3 2.289871745700000e-3 2.318674786490000e-3 2.347840124930000e-3
2.377372318170000e-3 2.407275980660000e-3 2.437555784930000e-3 2.468216462250000e-3
2.499262803410000e-3 2.530699659470000e-3 2.562531942500001e-3 2.594764626360000e-3
2.627402747480000e-3 2.660451405610000e-3 2.693915764690000e-3 2.727801053599999e-3
2.762112566960000e-3 2.796855666030000e-3 2.832035779490000e-3 2.867658404310000e-3
2.903729106580000e-3 2.940253522440000e-3 2.977237358890000e-3 3.014686394730000e-3
3.052606481460000e-3 3.091003544160000e-3 3.129883582450000e-3 3.169252671420000e-3
3.209116962560000e-3 3.249482684770000e-3 3.290356145250000e-3 3.331743730570000e-3
3.373651907630000e-3 3.416087224670000e-3 3.459056312280000e-3 3.502565884480000e-3
3.546622739730000e-3 3.591233761989999e-3 3.636405921840000e-3 3.682146277510000e-3
3.728461976030000e-3 3.775360254310000e-3 3.822848440320000e-3 3.870933954180000e-3
3.919624309330000e-3 3.968927113770000e-3 4.018850071140000e-3 4.069400982010000e-3
4.120587745060000e-3 4.172418358330000e-3 4.224900920450001e-3 4.278043631950000e-3
4.331854796460000e-3 4.386342822100000e-3 4.441516222730000e-3 4.497383619300000e-3
4.553953741220001e-3 4.611235427670000e-3 4.669237629040000e-3 4.727969408290001e-3
4.787439942370000e-3 4.847658523689999e-3 4.908634561520000e-3 4.970377583480000e-3
5.032897237050000e-3 5.096203291060000e-3 5.160305637200000e-3 5.225214291590000e-3
5.290939396340000e-3 5.357491221150000e-3 5.424880164850000e-3 5.493116757119999e-3
5.562211660049999e-3 5.632175669880001e-3 5.703019718610001e-3 5.774754875779999e-3
5.847392350140001e-3 5.920943491460000e-3 5.995419792240000e-3 6.070832889560000e-3
6.147194566870001e-3 6.224516755840001e-3 6.302811538220000e-3 6.382091147719999e-3
6.462367971950000e-3 6.543654554330001e-3 6.625963596039998e-3 6.709307958040000e-3
6.793700663059999e-3 6.879154897630000e-3 6.965684014150000e-3 7.053301532970001e-3
7.142021144510000e-3 7.231856711380001e-3 7.322822270570001e-3 7.414932035640000e-3
7.508200398930000e-3 7.602641933800001e-3 7.698271396950000e-3 7.795103730660000e-3
7.893154065190000e-3 7.992437721100001e-3 8.092970211670000e-3 8.194767245300000e-3
8.297844727979999e-3 8.402218765779999e-3 8.507905667359999e-3 8.614921946510000e-3
8.723284324740000e-3 8.833009733890000e-3 8.944115318790001e-3 9.056618439900001e-3
9.170536676070000e-3 9.285887827250001e-3 9.402689917300000e-3 9.520961196769999e-3
9.640720145810000e-3 9.761985476980000e-3 9.884776138240001e-3 1.000911131590000e-2
1.013501043750000e-2 1.026249317520000e-2 1.039157944830000e-2 1.052228942680000e-2
1.065464353450000e-2 1.078866245180000e-2 1.092436711970000e-2 1.106177874210000e-2
1.120091879000000e-2 1.134180900420000e-2 1.148447139910000e-2 1.162892826610000e-2
1.177520217670000e-2 1.192331598670000e-2 1.207329283900000e-2 1.222515616800000e-2
1.237892970240000e-2 1.253463746980000e-2 1.269230379980000e-2 1.285195332810000e-2
1.301361100020000e-2 1.317730207550000e-2 1.334305213110000e-2 1.351088706580000e-2
1.368083310400000e-2 1.385291680020000e-2 1.402716504290000e-2 1.420360505860000e-2
1.438226441660000e-2 1.456317103260000e-2 1.474635317370000e-2 1.493183946250000e-2
1.511965888160000e-2 1.530984077810000e-2 1.550241486840000e-2 1.569741124260000e-2
1.589486036930000e-2 1.609479310020000e-2 1.629724067520000e-2 1.650223472730000e-2
1.670980728710000e-2 1.691999078830000e-2 1.713281807250000e-2 1.734832239440000e-2
1.756653742700000e-2 1.778749726670000e-2 1.801123643910000e-2 1.823778990390000e-2
1.846719306040000e-2 1.869948175340000e-2 1.893469227850000e-2 1.917286138770000e-2
1.941402629560000e-2 1.965822468460000e-2 1.990549471110000e-2 2.015587501170000e-2
2.040940470880000e-2 2.066612341690000e-2 2.092607124890000e-2 2.118928882200000e-2
2.145581726460000e-2 2.172569822240000e-2 2.199897386460000e-2 2.227568689130000e-2
2.255588053940000e-2 2.283959858980000e-2 2.312688537380000e-2 2.341778578080000e-2
2.371234526440000e-2 2.401060985020000e-2 2.431262614270000e-2 2.461844133250000e-2
2.492810320380000e-2 2.524166014190000e-2 2.555916114080000e-2 2.588065581070000e-2
2.620619438560000e-2 2.653582773170000e-2 2.686960735500000e-2 2.720758540900000e-2
2.754981470360000e-2 2.789634871280000e-2 2.824724158320000e-2 2.860254814270000e-2
2.896232390840000e-2 2.932662509620000e-2 2.969550862880000e-2 3.006903214510000e-2
3.044725400880000e-2 3.083023331790000e-2 3.121802991370000e-2 3.161070439010000e-2
3.200831810350000e-2 3.241093318160000e-2 3.281861253400000e-2 3.323141986140000e-2
3.364941966580000e-2 3.407267726040000e-2 3.450125878020000e-2 3.493523119180000e-2
3.537466230450001e-2 3.581962078000000e-2 3.627017614420000e-2 3.672639879720000e-2
3.718836002470000e-2 3.765613200919999e-2 3.812978784090000e-2 3.860940152950000e-2
3.909504801560000e-2 3.958680318260000e-2 4.008474386810001e-2 4.058894787630000e-2
4.109949399030000e-2 4.161646198380000e-2 4.213993263410000e-2 4.266998773470000e-2
4.320671010760000e-2 4.375018361700000e-2 4.430049318150000e-2 4.485772478820000e-2
4.542196550570000e-2 4.599330349770000e-2 4.657182803690000e-2 4.715762951900000e-2
4.775079947670000e-2 4.835143059390000e-2 4.895961672060000e-2 4.957545288700000e-2
5.019903531870000e-2 5.083046145180000e-2 5.146982994800000e-2 5.211724070979999e-2
5.277279489650000e-2 5.343659493980000e-2 5.410874455970001e-2 5.478934878110000e-2
5.547851394970000e-2 5.617634774890000e-2 5.688295921680000e-2 5.759845876280000e-2
5.832295818520000e-2 5.905657068840000e-2 5.979941090100001e-2 6.055159489320000e-2
6.131324019520000e-2 6.208446581580001e-2 6.286539226050001e-2 6.365614155069999e-2
6.445683724240001e-2 6.526760444610000e-2 6.608856984580001e-2 6.691986171900000e-2
6.776160995680001e-2 6.861394608389999e-2 6.947700327980000e-2 7.035091639870000e-2
7.123582199150000e-2 7.213185832629999e-2 7.303916541080000e-2 7.395788501349999e-2
7.488816068619998e-2 7.583013778640001e-2 7.678396349980000e-2 7.774978686380001e-2
7.872775879020000e-2 7.971803208899999e-2 8.072076149260001e-2 8.173610367929999e-2
8.276421729860001e-2 8.380526299520000e-2 8.485940343459999e-2 8.592680332850000e-2
8.700762946020001e-2 8.810205071099999e-2 8.921023808649998e-2 9.033236474320001e-2
9.146860601570001e-2 9.261913944390001e-2 9.378414480120000e-2 9.496380412180001e-2
9.615830173010000e-2 9.736782426860000e-2 9.859256072779999e-2 9.983270247520000e-2
1.010884432850000e-1 1.023599793710000e-1 1.036475094110000e-1 1.049512345850000e-1
1.062713586040000e-1 1.076080877380000e-1 1.089616308550000e-1 1.103321994480000e-1
1.117200076730000e-1 1.131252723750000e-1 1.145482131320000e-1 1.159890522800000e-1
1.174480149530000e-1 1.189253291180000e-1 1.204212256070000e-1 1.219359381580000e-1
1.234697034470000e-1 1.250227611280000e-1 1.265953538710000e-1 1.281877273950000e-1
1.298001305120000e-1 1.314328151640000e-1 1.330860364600000e-1 1.347600527200000e-1
1.364551255130000e-1 1.381715196970000e-1 1.399095034620000e-1 1.416693483710000e-1
1.434513294040000e-1 1.452557250000000e-1 1.470828170970000e-1 1.489328911850000e-1
1.508062363390000e-1 1.527031452750000e-1 1.546239143880000e-1 1.565688438020000e-1
1.585382374170000e-1 1.605324029530000e-1 1.625516520050000e-1 1.645963000820000e-1
1.666666666670000e-1 1.687630752570000e-1 1.708858534210000e-1 1.730353328470000e-1
1.752118493960000e-1 1.774157431530000e-1 1.796473584810000e-1 1.819070440740000e-1
1.841951530130000e-1 1.865120428190000e-1 1.888580755110000e-1 1.912336176620000e-1
1.936390404550000e-1 1.960747197410000e-1 1.985410361020000e-1 2.010383749030000e-1
2.035671263600000e-1 2.061276855940000e-1 2.087204526990000e-1 2.113458327980000e-1
2.140042361150000e-1 2.166960780280000e-1 2.194217791450000e-1 2.221817653610000e-1
2.249764679290000e-1 2.278063235290000e-1 2.306717743300000e-1 2.335732680650000e-1
2.365112580990000e-1 2.394862034980000e-1 2.424985691030000e-1 2.455488256030000e-1
2.486374496070000e-1 2.517649237180000e-1 2.549317366110000e-1 2.581383831060000e-1
2.613853642480000e-1 2.646731873860000e-1 2.680023662480000e-1 2.713734210240000e-1
2.747868784500000e-1 2.782432718850000e-1 2.817431413970000e-1 2.852870338470000e-1
2.888755029780000e-1 2.925091094930000e-1 2.961884211520000e-1 2.999140128550000e-1
3.036864667320000e-1 3.075063722370000e-1 3.113743262390000e-1 3.152909331120000e-1
3.192568048360000e-1 3.232725610840000e-1 3.273388293280000e-1 3.314562449300000e-1
3.356254512450000e-1 3.398470997190000e-1 3.441218499940000e-1 3.484503700090000e-1
3.528333361020000e-1 3.572714331220000e-1 3.617653545310000e-1 3.663158025120000e-1
3.709234880820000e-1 3.755891312020000e-1 3.803134608880000e-1 3.850972153260000e-1
3.899411419880000e-1 3.948459977460000e-1 3.998125489950000e-1 4.048415717670000e-1
4.099338518590000e-1 4.150901849500000e-1 4.203113767260000e-1 4.255982430100000e-1
4.309516098860000e-1 4.363723138270000e-1 4.418612018300000e-1 4.474191315450000e-1
4.530469714100000e-1 4.587456007850000e-1 4.645159100940000e-1 4.703588009590000e-1
4.762751863440000e-1 4.822659906949999e-1 4.883321500890000e-1 4.944746123750000e-1
5.006943373240000e-1 5.069922967829999e-1 5.133694748200000e-1 5.198268678810000e-1
5.263654849480000e-1 5.329863476930000e-1 5.396904906400000e-1 5.464789613230000e-1
5.533528204560000e-1 5.603131420930000e-1 5.673610137980000e-1 5.744975368170000e-1
5.817238262440000e-1 5.890410112020001e-1 5.964502350170000e-1 6.039526553940000e-1
6.115494446030000e-1 6.192417896570000e-1 6.270308925000000e-1 6.349179701960001e-1
6.429042551160000e-1 6.509909951340001e-1 6.591794538200000e-1 6.674709106370001e-1
6.758666611410000e-1 6.843680171860001e-1 6.929763071260000e-1 7.016928760240000e-1
7.105190858609999e-1 7.194563157519999e-1 7.285059621549999e-1 7.376694390970000e-1
7.469481783900001e-1 7.563436298550000e-1 7.658572615510000e-1 7.754905600030000e-1
7.852450304320000e-1 7.951221969950000e-1 8.051236030180000e-1 8.152508112430001e-1
8.255054040660001e-1 8.358889837870001e-1 8.464031728630001e-1 8.570496141570001e-1
8.678299711970000e-1 8.787459284350000e-1 8.897991915120000e-1 9.009914875240000e-1
9.123245652880000e-1 9.238001956220000e-1 9.354201716160000e-1 9.471863089140001e-1
9.591004460010000e-1 9.711644444839999e-1 9.833801893870000e-1 9.957495894450000e-1
1.008274577400000e0 1.020957110310000e0 1.033799169850000e0 1.046802762610000e0
1.059969920430000e0 1.073302700710000e0 1.086803186720000e0 1.100473487940000e0
1.114315740380000e0 1.128332106920000e0 1.142524777650000e0 1.156895970200000e0
1.171447930100000e0 1.186182931120000e0 1.201103275640000e0 1.216211294980000e0
1.231509349820000e0 1.246999830500000e0 1.262685157440000e0 1.278567781500000e0
1.294650184380000e0 1.310934878990000e0 1.327424409840000e0 1.344121353450000e0
1.361028318760000e0 1.378147947510000e0 1.395482914690000e0 1.413035928910000e0
1.430809732860000e0 1.448807103750000e0 1.467030853700000e0 1.485483830200000e0
1.504168916570000e0 1.523089032400000e0 1.542247133980000e0 1.561646214820000e0
1.581289306060000e0 1.601179476970000e0 1.621319835430000e0 1.641713528410000e0
1.662363742470000e0 1.683273704250000e0 1.704446680970000e0 1.725885980950000e0
1.747594954120000e0 1.769576992560000e0 1.791835531010000e0 1.814374047410000e0
1.837196063440000e0 1.860305145090000e0 1.883704903210000e0 1.907398994060000e0
1.931391119870000e0 1.955685029480000e0 1.980284518850000e0 2.005193431710000e0
2.030415660120000e0 2.055955145110000e0 2.081815877270000e0 2.108001897400000e0
2.134517297110000e0 2.161366219490000e0 2.188552859750000e0 2.216081465840000e0
2.243956339170000e0 2.272181835240000e0 2.300762364340000e0 2.329702392250000e0
2.359006440900000e0 2.388679089100000e0 2.418724973270000e0 2.449148788130000e0
2.479955287480000e0 2.511149284890000e0 2.542735654480000e0 2.574719331690000e0
2.607105314030000e0 2.639898661890000e0 2.673104499280000e0 2.706728014680000e0
2.740774461850000e0 2.775249160600000e0 2.810157497680000e0 2.845504927590000e0
2.881296973430000e0 2.917539227780000e0 2.954237353580000e0 2.991397084970000e0
3.029024228240000e0 3.067124662710000e0 3.105704341650000e0 3.144769293210000e0
3.184325621370000e0 3.224379506890000e0 3.264937208270000e0 3.306005062720000e0
3.347589487200000e0 3.389696979340000e0 3.432334118530000e0 3.475507566910000e0
3.519224070420000e0 3.563490459850000e0 3.608313651920000e0 3.653700650330000e0
3.699658546910000e0 3.746194522660000e0 3.793315848920000e0 3.841029888510000e0
3.889344096820000e0 3.938266023070000e0 3.987803311400000e0 4.037963702100000e0
4.088755032850000e0 4.140185239890000e0 4.192262359300000e0 4.244994528240000e0
4.298389986200000e0 4.352457076340000e0 4.407204246760000e0 4.462640051810000e0
4.518773153440000e0 4.575612322580000e0 4.633166440440000e0 4.691444500000000e0
4.750455607290000e0 4.810208982950000e0 4.870713963540000e0 4.931980003100000e0
4.994016674570000e0 5.056833671300000e0 5.120440808580000e0 5.184848025160000e0
5.250065384790000e0 5.316103077820000e0 5.382971422770000e0 5.450680867950000e0
5.519241993120000e0 5.588665511070000e0 5.658962269370000e0 5.730143252050000e0
5.802219581270000e0 5.875202519100000e0 5.949103469280000e0 6.023933978970000e0
6.099705740610000e0 6.176430593680000e0 6.254120526600000e0 6.332787678570000e0
6.412444341510000e0 6.493102961910000e0 6.574776142870000e0 6.657476645970000e0
6.741217393340000e0 6.826011469650000e0 6.911872124140000e0 6.998812772710000e0
7.086847000010000e0 7.175988561580000e0 7.266251385950000e0 7.357649576890000e0
7.450197415550000e0 7.543909362710000e0 7.638800061060000e0 7.734884337450000e0
7.832177205260000e0 7.930693866700000e0 8.030449715180000e0 8.131460337780000e0
8.233741517590000e0 8.337309236270000e0 8.442179676469999e0 8.548369224429999e0
8.655894472470001e0 8.764772221630000e0 8.875019484290000e0 8.986653486790001e0
9.099691672190000e0 9.214151702920001e0 9.330051463609999e0 9.447409063809999e0
9.566242840910000e0 9.686571362910000e0 9.808413431390001e0 9.931788084430000e0
1.005671459960000e1 1.018321249680000e1 1.031130154170000e1 1.044100174850000e1
1.057233338300000e1 1.070531696620000e1 1.083997327680000e1 1.097632335540000e1
1.111438850680000e1 1.125419030410000e1 1.139575059140000e1 1.153909148800000e1
1.168423539110000e1 1.183120497980000e1 1.198002321830000e1 1.213071335980000e1
1.228329894990000e1 1.243780383050000e1 1.259425214330000e1 1.275266833360000e1
1.291307715420000e1 1.307550366940000e1 1.323997325870000e1 1.340651162070000e1
1.357514477750000e1 1.374589907820000e1 1.391880120370000e1 1.409387817010000e1
1.427115733370000e1 1.445066639470000e1 1.463243340160000e1 1.481648675610000e1
1.500285521680000e1 1.519156790410000e1 1.538265430480000e1 1.557614427650000e1
1.577206805250000e1 1.597045624620000e1 1.617133985620000e1 1.637475027090000e1
1.658071927370000e1 1.678927904750000e1 1.700046218040000e1 1.721430167020000e1
1.743083092950000e1 1.765008379170000e1 1.787209451530000e1 1.809689779010000e1
1.832452874200000e1 1.855502293880000e1 1.878841639570000e1 1.902474558080000e1
1.926404742120000e1 1.950635930820000e1 1.975171910350000e1 2.000016514500000e1
2.025173625310000e1 2.050647173620000e1 2.076441139720000e1 2.102559553970000e1
2.129006497430000e1 2.155786102490000e1 2.182902553510000e1 2.210360087500000e1
2.238162994750000e1 2.266315619520000e1 2.294822360710000e1 2.323687672570000e1
2.352916065360000e1 2.382512106070000e1 2.412480419140000e1 2.442825687180000e1
2.473552651710000e1 2.504666113870000e1 2.536170935210000e1 2.568072038420000e1
2.600374408110000e1 2.633083091590000e1 2.666203199660000e1 2.699739907400000e1
2.733698455000000e1 2.768084148540000e1 2.802902360860000e1 2.838158532380000e1
2.873858171950000e1 2.910006857700000e1 2.946610237940000e1 2.983674032030000e1
3.021204031250000e1 3.059206099750000e1 3.097686175430000e1 3.136650270880000e1
3.176104474310000e1 3.216054950530000e1 3.256507941880001e1 3.297469769210000e1
3.338946832910000e1 3.380945613850001e1 3.423472674410000e1 3.466534659550000e1
3.510138297780000e1 3.554290402260000e1 3.598997871840000e1 3.644267692170000e1
3.690106936740000e1 3.736522768020000e1 3.783522438590000e1 3.831113292230000e1
3.879302765130000e1 3.928098386970000e1 3.977507782180000e1 4.027538671070000e1
4.078198871070000e1 4.129496297940000e1 4.181438967010000e1 4.234034994430000e1
4.287292598430000e1 4.341220100620000e1 4.395825927280000e1 4.451118610690000e1
4.507106790440001e1 4.563799214790000e1 4.621204742050000e1 4.679332341960000e1
4.738191097070000e1 4.797790204170000e1 4.858138975760000e1 4.919246841440000e1
4.981123349450001e1 5.043778168120000e1 5.107221087390000e1 5.171462020340001e1
5.236511004760001e1 5.302378204680000e1 5.369073911970000e1 5.436608547990001e1
5.504992665160001e1 5.574236948630000e1 5.644352217970000e1 5.715349428820001e1
5.787239674650000e1 5.860034188450000e1 5.933744344510000e1 6.008381660200000e1
6.083957797760000e1 6.160484566090000e1 6.237973922670001e1 6.316437975370000e1
6.395888984350001e1 6.476339364000001e1 6.557801684850000e1 6.640288675560000e1
6.723813224880001e1 6.808388383700001e1 6.894027367050001e1 6.980743556210000e1
7.068550500750000e1 7.157461920679999e1 7.247491708610001e1 7.338653931850001e1
7.430962834710001e1 7.524432840630000e1 7.619078554480000e1 7.714914764860001e1
7.811956446370001e1 7.910218761970000e1 8.009717065350001e1 8.110466903310000e1
8.212484018220001e1 8.315784350470000e1 8.420384040950001e1 8.526299433560000e1
8.633547077810000e1 8.742143731350000e1 8.852106362630002e1 8.963452153550000e1
9.076198502100000e1 9.190363025130001e1 9.305963561080000e1 9.423018172780001e1
9.541545150230000e1 9.661563013520002e1 9.783090515700001e1 9.906146645660002e1
1.003075063120000e2
</PP_R>
<PP_RAB>
1.899754094910000e-6 1.923650059730000e-6 1.947846598780000e-6 1.972347492840000e-6
1.997156570200000e-6 2.022277707330000e-6 2.047714829479999e-6 2.073471911230000e-6
2.099552977180000e-6 2.125962102560000e-6 2.152703413850000e-6 2.179781089420000e-6
2.207199360220000e-6 2.234962510419999e-6 2.263074878050000e-6 2.291540855740000e-6
2.320364891340000e-6 2.349551488690000e-6 2.379105208230000e-6 2.409030667800000e-6
2.439332543310000e-6 2.470015569500000e-6 2.501084540650000e-6 2.532544311340001e-6
2.564399797240000e-6 2.596655975820000e-6 2.629317887180000e-6 2.662390634810000e-6
2.695879386390000e-6 2.729789374610000e-6 2.764125897970000e-6 2.798894321630000e-6
2.834100078220000e-6 2.869748668720001e-6 2.905845663280000e-6 2.942396702140000e-6
2.979407496469999e-6 3.016883829290000e-6 3.054831556340000e-6 3.093256607040000e-6
3.132164985370000e-6 3.171562770860000e-6 3.211456119479999e-6 3.251851264650000e-6
3.292754518200000e-6 3.334172271339999e-6 3.376110995690000e-6 3.418577244240000e-6
3.461577652450000e-6 3.505118939200000e-6 3.549207907920000e-6 3.593851447600000e-6
3.639056533880000e-6 3.684830230140000e-6 3.731179688630000e-6 3.778112151530000e-6
3.825634952140001e-6 3.873755516000000e-6 3.922481362040001e-6 3.971820103770000e-6
4.021779450469999e-6 4.072367208399999e-6 4.123591281990000e-6 4.175459675100001e-6
4.227980492280000e-6 4.281161940020000e-6 4.335012328019999e-6 4.389540070520001e-6
4.444753687580000e-6 4.500661806450001e-6 4.557273162880000e-6 4.614596602520001e-6
4.672641082259999e-6 4.731415671679999e-6 4.790929554430001e-6 4.851192029660000e-6
4.912212513520000e-6 4.974000540580001e-6 5.036565765340000e-6 5.099917963750000e-6
5.164067034720000e-6 5.229023001670000e-6 5.294796014099999e-6 5.361396349179999e-6
5.428834413350000e-6 5.497120743939999e-6 5.566266010830000e-6 5.636281018110000e-6
5.707176705770001e-6 5.778964151390000e-6 5.851654571929999e-6 5.925259325390000e-6
5.999789912680001e-6 6.075257979350001e-6 6.151675317440000e-6 6.229053867320000e-6
6.307405719530000e-6 6.386743116720002e-6 6.467078455519999e-6 6.548424288480000e-6
6.630793326060001e-6 6.714198438590000e-6 6.798652658280001e-6 6.884169181290000e-6
6.970761369730001e-6 7.058442753820000e-6 7.147227033949999e-6 7.237128082849999e-6
7.328159947730001e-6 7.420336852520000e-6 7.513673200030001e-6 7.608183574270000e-6
7.703882742669999e-6 7.800785658429998e-6 7.898907462810001e-6 7.998263487549999e-6
8.098869257240001e-6 8.200740491730002e-6 8.303893108599997e-6 8.408343225670002e-6
8.514107163469998e-6 8.621201447829998e-6 8.729642812470001e-6 8.839448201549999e-6
8.950634772400001e-6 9.063219898139998e-6 9.177221170430000e-6 9.292656402200000e-6
9.409543630440000e-6 9.527901119019999e-6 9.647747361530000e-6 9.769101084190002e-6
9.891981248769998e-6 1.001640705560000e-5 1.014239794630000e-5 1.026997360740000e-5
1.039915397270000e-5 1.052995922700000e-5 1.066240980890000e-5 1.079652641400000e-5
1.093232999830000e-5 1.106984178140000e-5 1.120908324980000e-5 1.135007616030000e-5
1.149284254330000e-5 1.163740470620000e-5 1.178378523740000e-5 1.193200700900000e-5
1.208209318090000e-5 1.223406720450000e-5 1.238795282600000e-5 1.254377409030000e-5
1.270155534480000e-5 1.286132124320000e-5 1.302309674920000e-5 1.318690714060000e-5
1.335277801300000e-5 1.352073528420000e-5 1.369080519780000e-5 1.386301432750000e-5
1.403738958140000e-5 1.421395820600000e-5 1.439274779050000e-5 1.457378627120000e-5
1.475710193550000e-5 1.494272342710000e-5 1.513067974960000e-5 1.532100027160000e-5
1.551371473110000e-5 1.570885324010000e-5 1.590644628930000e-5 1.610652475310000e-5
1.630911989420000e-5 1.651426336850000e-5 1.672198723000000e-5 1.693232393600000e-5
1.714530635210000e-5 1.736096775720000e-5 1.757934184890000e-5 1.780046274840000e-5
1.802436500650000e-5 1.825108360830000e-5 1.848065397900000e-5 1.871311198950000e-5
1.894849396190000e-5 1.918683667490000e-5 1.942817737030000e-5 1.967255375780000e-5
1.992000402200000e-5 2.017056682720000e-5 2.042428132460000e-5 2.068118715750000e-5
2.094132446800000e-5 2.120473390300000e-5 2.147145662080000e-5 2.174153429740000e-5
2.201500913300000e-5 2.229192385860000e-5 2.257232174260000e-5 2.285624659780000e-5
2.314374278800000e-5 2.343485523510000e-5 2.372962942610000e-5 2.402811141990000e-5
2.433034785499999e-5 2.463638595650000e-5 2.494627354329999e-5 2.526005903620000e-5
2.557779146470001e-5 2.589952047520000e-5 2.622529633839999e-5 2.655516995750000e-5
2.688919287600000e-5 2.722741728560000e-5 2.756989603450000e-5 2.791668263570000e-5
2.826783127540000e-5 2.862339682130000e-5 2.898343483110000e-5 2.934800156160000e-5
2.971715397710000e-5 3.009094975830000e-5 3.046944731169999e-5 3.085270577810000e-5
3.124078504270000e-5 3.163374574340001e-5 3.203164928130000e-5 3.243455782950000e-5
3.284253434340000e-5 3.325564257020000e-5 3.367394705870000e-5 3.409751316990000e-5
3.452640708700001e-5 3.496069582540001e-5 3.540044724370000e-5 3.584573005390000e-5
3.629661383229999e-5 3.675316903049999e-5 3.721546698610000e-5 3.768357993410000e-5
3.815758101820000e-5 3.863754430190000e-5 3.912354478059999e-5 3.961565839270000e-5
4.011396203209999e-5 4.061853355960000e-5 4.112945181560001e-5 4.164679663220000e-5
4.217064884540000e-5 4.270109030840000e-5 4.323820390350001e-5 4.378207355600000e-5
4.433278424660000e-5 4.489042202490000e-5 4.545507402300000e-5 4.602682846890000e-5
4.660577470030000e-5 4.719200317889999e-5 4.778560550400001e-5 4.838667442720000e-5
4.899530386670000e-5 4.961158892209999e-5 5.023562588920000e-5 5.086751227510000e-5
5.150734681319999e-5 5.215522947909999e-5 5.281126150570000e-5 5.347554539930001e-5
5.414818495570000e-5 5.482928527620000e-5 5.551895278410001e-5 5.621729524130002e-5
5.692442176520000e-5 5.764044284580000e-5 5.836547036300001e-5 5.909961760360000e-5
5.984299927970000e-5 6.059573154620001e-5 6.135793201899999e-5 6.212971979350001e-5
6.291121546319999e-5 6.370254113820000e-5 6.450382046500001e-5 6.531517864490000e-5
6.613674245430001e-5 6.696864026430001e-5 6.781100206059999e-5 6.866395946400000e-5
6.952764575070001e-5 7.040219587350000e-5 7.128774648260000e-5 7.218443594719998e-5
7.309240437680000e-5 7.401179364320000e-5 7.494274740300000e-5 7.588541111950001e-5