<UPF version="2.0.1">
<PP_INFO>
Generated by new atomic code, or converted to UPF format
Author:
Generation date:
Pseudopotential type: 1/r
Element: H
Functional:  SLA  PW   PBX  PBC
Suggested minimum cutoff for wavefunctions:   0. Ry
Suggested minimum cutoff for charge density:   0. Ry
The Pseudo was generated with a Non-Relativistic Calculation
L component and cutoff radius for Local Potential:  0   0.0000
Valence configuration:
nl pn  l   occ       Rcut    Rcut US       E pseu
Generation configuration: not available.
</PP_INFO>
<!--
END OF HUMAN READABLE SECTION
-->
<PP_HEADER 
relativistic="no"
number_of_proj="0"
comment=""
mesh_size="1451"
paw_as_gipaw="false"
date=""
total_psenergy="-9.178626849100e-1"
is_coulomb="true"
has_wfc="false"
pseudo_type="1/r"
is_ultrasoft="false"
has_so="false"
rho_cutoff="0.000000000000e0"
z_valence="1.000000000000e0"
element="H "
wfc_cutoff="0.000000000000e0"
core_correction="false"
l_max="0"
l_max_rho="0"
is_paw="false"
has_gipaw="false"
l_local="0"
functional=" SLA  PW   PBX  PBC"
number_of_wfc="0"
generated="Generated by new atomic code, or converted to UPF format"
author=""
/>
<PP_MESH dx="7.999999999999e-3" mesh="1451" xmin="-6.999999999999e0" rmax="9.948431564190e1" zmesh="1.000000000000e0">
<PP_R>
9.118819655550002e-4 9.192062794720000e-4 9.265894229040001e-4 9.340318683769999e-4
9.415340922070000e-4 9.490965745410001e-4 9.567197993790002e-4 9.644042546120001e-4
9.721504320450000e-4 9.799588274390002e-4 9.878299405310001e-4 9.957642750769999e-4
1.003762338880000e-3 1.011824643810000e-3 1.019951705860000e-3 1.028144045170000e-3
1.036402186060000e-3 1.044726657030000e-3 1.053117990870000e-3 1.061576724620000e-3
1.070103399640000e-3 1.078698561640000e-3 1.087362760720000e-3 1.096096551390000e-3
1.104900492610000e-3 1.113775147840000e-3 1.122721085060000e-3 1.131738876820000e-3
1.140829100240000e-3 1.149992337120000e-3 1.159229173900000e-3 1.168540201750000e-3
1.177926016560000e-3 1.187387219050000e-3 1.196924414720000e-3 1.206538213960000e-3
1.216229232060000e-3 1.225998089240000e-3 1.235845410720000e-3 1.245771826730000e-3
1.255777972560000e-3 1.265864488610000e-3 1.276032020420000e-3 1.286281218720000e-3
1.296612739450000e-3 1.307027243840000e-3 1.317525398420000e-3 1.328107875070000e-3
1.338775351080000e-3 1.349528509170000e-3 1.360368037550000e-3 1.371294629940000e-3
1.382308985660000e-3 1.393411809630000e-3 1.404603812430000e-3 1.415885710350000e-3
1.427258225440000e-3 1.438722085540000e-3 1.450278024350000e-3 1.461926781440000e-3
1.473669102350000e-3 1.485505738590000e-3 1.497437447700000e-3 1.509464993320000e-3
1.521589145210000e-3 1.533810679320000e-3 1.546130377850000e-3 1.558549029240000e-3
1.571067428310000e-3 1.583686376230000e-3 1.596406680610000e-3 1.609229155570000e-3
1.622154621740000e-3 1.635183906370000e-3 1.648317843320000e-3 1.661557273170000e-3
1.674903043260000e-3 1.688356007720000e-3 1.701917027530000e-3 1.715586970620000e-3
1.729366711860000e-3 1.743257133160000e-3 1.757259123500000e-3 1.771373579040000e-3
1.785601403080000e-3 1.799943506230000e-3 1.814400806380000e-3 1.828974228790000e-3
1.843664706180000e-3 1.858473178740000e-3 1.873400594220000e-3 1.888447907980000e-3
1.903616083050000e-3 1.918906090190000e-3 1.934318907980000e-3 1.949855522850000e-3
1.965516929130000e-3 1.981304129160000e-3 1.997218133340000e-3 2.013259960150001e-3
2.029430636300000e-3 2.045731196690000e-3 2.062162684580000e-3 2.078726151590000e-3
2.095422657780000e-3 2.112253271730000e-3 2.129219070620000e-3 2.146321140250000e-3
2.163560575170000e-3 2.180938478700000e-3 2.198455963040000e-3 2.216114149320000e-3
2.233914167650000e-3 2.251857157250000e-3 2.269944266480000e-3 2.288176652920000e-3
2.306555483450000e-3 2.325081934310000e-3 2.343757191210000e-3 2.362582449370000e-3
2.381558913620000e-3 2.400687798440000e-3 2.419970328110000e-3 2.439407736700000e-3
2.459001268220000e-3 2.478752176670000e-3 2.498661726090000e-3 2.518731190720000e-3
2.538961855010000e-3 2.559355013720000e-3 2.579911972030000e-3 2.600634045580000e-3
2.621522560600000e-3 2.642578853960000e-3 2.663804273260000e-3 2.685200176950000e-3
2.706767934370000e-3 2.728508925860000e-3 2.750424542850000e-3 2.772516187950000e-3
2.794785275040001e-3 2.817233229330000e-3 2.839861487520000e-3 2.862671497800000e-3
2.885664720040000e-3 2.908842625810000e-3 2.932206698500000e-3 2.955758433420001e-3
2.979499337890000e-3 3.003430931330000e-3 3.027554745380000e-3 3.051872323960000e-3
3.076385223410000e-3 3.101095012570000e-3 3.126003272870000e-3 3.151111598440000e-3
3.176421596240000e-3 3.201934886100000e-3 3.227653100880000e-3 3.253577886560000e-3
3.279710902340000e-3 3.306053820740000e-3 3.332608327710000e-3 3.359376122750001e-3
3.386358919010000e-3 3.413558443400000e-3 3.440976436690000e-3 3.468614653640000e-3
3.496474863120000e-3 3.524558848190000e-3 3.552868406220000e-3 3.581405349050000e-3
3.610171503030001e-3 3.639168709230000e-3 3.668398823470000e-3 3.697863716480000e-3
3.727565274040000e-3 3.757505397040000e-3 3.787686001670000e-3 3.818109019500000e-3
3.848776397610000e-3 3.879690098720000e-3 3.910852101330000e-3 3.942264399800000e-3
3.973929004540000e-3 4.005847942090000e-3 4.038023255280000e-3 4.070457003330000e-3
4.103151262030000e-3 4.136108123800001e-3 4.169329697900000e-3 4.202818110529999e-3
4.236575504960000e-3 4.270604041660000e-3 4.304905898470000e-3 4.339483270740000e-3
4.374338371409999e-3 4.409473431239999e-3 4.444890698870000e-3 4.480592441020001e-3
4.516580942609999e-3 4.552858506929999e-3 4.589427455750000e-3 4.626290129490000e-3
4.663448887380000e-3 4.700906107580000e-3 4.738664187390000e-3 4.776725543320000e-3
4.815092611310000e-3 4.853767846880000e-3 4.892753725240000e-3 4.932052741510001e-3
4.971667410840000e-3 5.011600268590000e-3 5.051853870460000e-3 5.092430792699999e-3
5.133333632250000e-3 5.174565006910000e-3 5.216127555490000e-3 5.258023938020000e-3
5.300256835870000e-3 5.342828951970001e-3 5.385743010950000e-3 5.429001759320000e-3
5.472607965650001e-3 5.516564420760000e-3 5.560873937880000e-3 5.605539352830000e-3
5.650563524210000e-3 5.695949333580000e-3 5.741699685650000e-3 5.787817508470000e-3
5.834305753580001e-3 5.881167396250000e-3 5.928405435640000e-3 5.976022895010001e-3
6.024022821870000e-3 6.072408288259999e-3 6.121182390850000e-3 6.170348251200000e-3
6.219909015940001e-3 6.269867856989999e-3 6.320227971720000e-3 6.370992583190001e-3
6.422164940370000e-3 6.473748318290000e-3 6.525746018320000e-3 6.578161368309999e-3
6.630997722880000e-3 6.684258463570001e-3 6.737946999090000e-3 6.792066765510000e-3
6.846621226520000e-3 6.901613873620000e-3 6.957048226370000e-3 7.012927832590000e-3
7.069256268570000e-3 7.126037139370000e-3 7.183274078980001e-3 7.240970750590002e-3
7.299130846790001e-3 7.357758089860001e-3 7.416856231950000e-3 7.476429055380001e-3
7.536480372819999e-3 7.597014027580000e-3 7.658033893820000e-3 7.719543876850000e-3
7.781547913330000e-3 7.844049971520000e-3 7.907054051590000e-3 7.970564185819999e-3
8.034584438880000e-3 8.099118908080001e-3 8.164171723659999e-3 8.229747049020000e-3
8.295849081000000e-3 8.362482050150000e-3 8.429650220999999e-3 8.497357892349999e-3
8.565609397500001e-3 8.634409104570000e-3 8.703761416780001e-3 8.773670772690000e-3
8.844141646520001e-3 8.915178548440000e-3 8.986786024829998e-3 9.058968658590000e-3
9.131731069430000e-3 9.205077914180000e-3 9.279013887060000e-3 9.353543719999999e-3
9.428672182930001e-3 9.504404084090000e-3 9.580744270360000e-3 9.657697627540001e-3
9.735269080660000e-3 9.813463594319998e-3 9.892286173000000e-3 9.971741861380000e-3
1.005183574460000e-2 1.013257294880000e-2 1.021395864110000e-2 1.029599803030000e-2
1.037869636680000e-2 1.046205894340000e-2 1.054609109540000e-2 1.063079820080000e-2
1.071618568100000e-2 1.080225900060000e-2 1.088902366860000e-2 1.097648523770000e-2
1.106464930570000e-2 1.115352151500000e-2 1.124310755350000e-2 1.133341315470000e-2
1.142444409820000e-2 1.151620621000000e-2 1.160870536300000e-2 1.170194747700000e-2
1.179593851980000e-2 1.189068450650000e-2 1.198619150120000e-2 1.208246561620000e-2
1.217951301310000e-2 1.227733990310000e-2 1.237595254690000e-2 1.247535725600000e-2
1.257556039220000e-2 1.267656836850000e-2 1.277838764950000e-2 1.288102475170000e-2
1.298448624390000e-2 1.308877874770000e-2 1.319390893770000e-2 1.329988354240000e-2
1.340670934430000e-2 1.351439318000000e-2 1.362294194160000e-2 1.373236257610000e-2
1.384266208650000e-2 1.395384753200000e-2 1.406592602850000e-2 1.417890474900000e-2
1.429279092430000e-2 1.440759184310000e-2 1.452331485270000e-2 1.463996735940000e-2
1.475755682900000e-2 1.487609078730000e-2 1.499557682050000e-2 1.511602257570000e-2
1.523743576150000e-2 1.535982414840000e-2 1.548319556930000e-2 1.560755792000000e-2
1.573291915970000e-2 1.585928731160000e-2 1.598667046340000e-2 1.611507676740000e-2
1.624451444190000e-2 1.637499177090000e-2 1.650651710500000e-2 1.663909886170000e-2
1.677274552650000e-2 1.690746565270000e-2 1.704326786250000e-2 1.718016084720000e-2
1.731815336810000e-2 1.745725425680000e-2 1.759747241560000e-2 1.773881681870000e-2
1.788129651220000e-2 1.802492061470000e-2 1.816969831830000e-2 1.831563888870000e-2
1.846275166640000e-2 1.861104606640000e-2 1.876053157970000e-2 1.891121777350000e-2
1.906311429160000e-2 1.921623085560000e-2 1.937057726490000e-2 1.952616339770000e-2
1.968299921170000e-2 1.984109474440000e-2 2.000046011390000e-2 2.016110551960000e-2
2.032304124300000e-2 2.048627764800000e-2 2.065082518170000e-2 2.081669437530000e-2
2.098389584440000e-2 2.115244029010000e-2 2.132233849910000e-2 2.149360134510000e-2
2.166623978890000e-2 2.184026487940000e-2 2.201568775440000e-2 2.219251964090000e-2
2.237077185620000e-2 2.255045580850000e-2 2.273158299770000e-2 2.291416501600000e-2
2.309821354870000e-2 2.328374037490000e-2 2.347075736840000e-2 2.365927649850000e-2
2.384930983030000e-2 2.404086952610000e-2 2.423396784570000e-2 2.442861714750000e-2
2.462482988920000e-2 2.482261862840000e-2 2.502199602370000e-2 2.522297483520000e-2
2.542556792580000e-2 2.562978826140000e-2 2.583564891210000e-2 2.604316305320000e-2
2.625234396570000e-2 2.646320503710000e-2 2.667575976270000e-2 2.689002174600001e-2
2.710600469990000e-2 2.732372244730001e-2 2.754318892230000e-2 2.776441817080000e-2
2.798742435150000e-2 2.821222173690000e-2 2.843882471420000e-2 2.866724778590000e-2
2.889750557130000e-2 2.912961280690000e-2 2.936358434770000e-2 2.959943516790000e-2
2.983718036200000e-2 3.007683514590000e-2 3.031841485750000e-2 3.056193495800001e-2
3.080741103280000e-2 3.105485879230000e-2 3.130429407350000e-2 3.155573284010000e-2
3.180919118440000e-2 3.206468532790000e-2 3.232223162210000e-2 3.258184655020000e-2
3.284354672750000e-2 3.310734890310000e-2 3.337326996030000e-2 3.364132691820000e-2
3.391153693250000e-2 3.418391729670000e-2 3.445848544330000e-2 3.473525894470000e-2
3.501425551460000e-2 3.529549300880000e-2 3.557898942650000e-2 3.586476291170000e-2
3.615283175400000e-2 3.644321438990000e-2 3.673592940390000e-2 3.703099553000000e-2
3.732843165239999e-2 3.762825680720000e-2 3.793049018320000e-2 3.823515112360000e-2
3.854225912670000e-2 3.885183384750000e-2 3.916389509900000e-2 3.947846285310000e-2
3.979555724230000e-2 4.011519856080001e-2 4.043740726560000e-2 4.076220397839999e-2
4.108960948610000e-2 4.141964474280000e-2 4.175233087090000e-2 4.208768916249999e-2
4.242574108050000e-2 4.276650826050000e-2 4.311001251150000e-2 4.345627581810000e-2
4.380532034120000e-2 4.415716841970000e-2 4.451184257210000e-2 4.486936549760000e-2
4.522976007780001e-2 4.559304937800000e-2 4.595925664900000e-2 4.632840532820000e-2
4.670051904100000e-2 4.707562160310000e-2 4.745373702090000e-2 4.783488949420000e-2
4.821910341670000e-2 4.860640337830000e-2 4.899681416630000e-2 4.939036076710001e-2
4.978706836790000e-2 5.018696235800000e-2 5.059006833090000e-2 5.099641208540000e-2
5.140601962760000e-2 5.181891717270000e-2 5.223513114619999e-2 5.265468818590000e-2
5.307761514360000e-2 5.350393908680000e-2 5.393368730040001e-2 5.436688728829999e-2
5.480356677560000e-2 5.524375370990001e-2 5.568747626330000e-2 5.613476283410001e-2
5.658564204899999e-2 5.704014276420000e-2 5.749829406810001e-2 5.796012528240000e-2
5.842566596450000e-2 5.889494590919999e-2 5.936799515050000e-2 5.984484396370000e-2
6.032552286750001e-2 6.081006262520000e-2 6.129849424770000e-2 6.179084899480001e-2
6.228715837730000e-2 6.278745415920000e-2 6.329176835960000e-2 6.380013325479999e-2
6.431258138030000e-2 6.482914553300000e-2 6.534985877299999e-2 6.587475442640001e-2
6.640386608649999e-2 6.693722761680000e-2 6.747487315239999e-2 6.801683710290001e-2
6.856315415430001e-2 6.911385927089999e-2 6.966898769809999e-2 7.022857496430000e-2
7.079265688320000e-2 7.136126955640000e-2 7.193444937519999e-2 7.251223302320000e-2
7.309465747900000e-2 7.368176001780000e-2 7.427357821430000e-2 7.487014994530000e-2
7.547151339129999e-2 7.607770704000000e-2 7.668876968790000e-2 7.730474044330000e-2
7.792565872840001e-2 7.855156428229999e-2 7.918249716309999e-2 7.981849775079999e-2
8.045960674950001e-2 8.110586519060000e-2 8.175731443469999e-2 8.241399617479999e-2
8.307595243889999e-2 8.374322559219999e-2 8.441585834060000e-2 8.509389373270000e-2
8.577737516300001e-2 8.646634637470001e-2 8.716085146200001e-2 8.786093487350000e-2
8.856664141490000e-2 8.927801625160001e-2 8.999510491180001e-2 9.071795328940000e-2
9.144660764699999e-2 9.218111461870000e-2 9.292152121320001e-2 9.366787481679999e-2
9.442022319630000e-2 9.517861450230001e-2 9.594309727220001e-2 9.671372043300000e-2
9.749053330500001e-2 9.827358560440000e-2 9.906292744670001e-2 9.985860935030001e-2
1.006606822390000e-1 1.014691974460000e-1 1.022842067160000e-1 1.031057622100000e-1
1.039339165080000e-1 1.047687226120000e-1 1.056102339500000e-1 1.064585043790000e-1
1.073135881890000e-1 1.081755401050000e-1 1.090444152930000e-1 1.099202693600000e-1
1.108031583620000e-1 1.116931388040000e-1 1.125902676460000e-1 1.134946023020000e-1
1.144062006520000e-1 1.153251210380000e-1 1.162514222710000e-1 1.171851636350000e-1
1.181264048890000e-1 1.190752062730000e-1 1.200316285110000e-1 1.209957328150000e-1
1.219675808860000e-1 1.229472349250000e-1 1.239347576280000e-1 1.249302121990000e-1
1.259336623450000e-1 1.269451722890000e-1 1.279648067670000e-1 1.289926310370000e-1
1.300287108780000e-1 1.310731126020000e-1 1.321259030500000e-1 1.331871496010000e-1
1.342569201740000e-1 1.353352832370000e-1 1.364223078030000e-1 1.375180634440000e-1
1.386226202880000e-1 1.397360490270000e-1 1.408584209210000e-1 1.419898078020000e-1
1.431302820790000e-1 1.442799167430000e-1 1.454387853710000e-1 1.466069621300000e-1
1.477845217860000e-1 1.489715397010000e-1 1.501680918450000e-1 1.513742547990000e-1
1.525901057570000e-1 1.538157225330000e-1 1.550511835690000e-1 1.562965679330000e-1
1.575519553300000e-1 1.588174261070000e-1 1.600930612530000e-1 1.613789424100000e-1
1.626751518740000e-1 1.639817726030000e-1 1.652988882220000e-1 1.666265830260000e-1
1.679649419880000e-1 1.693140507630000e-1 1.706739956960000e-1 1.720448638230000e-1
1.734267428800000e-1 1.748197213070000e-1 1.762238882570000e-1 1.776393335950000e-1
1.790661479110000e-1 1.805044225220000e-1 1.819542494780000e-1 1.834157215680000e-1
1.848889323260000e-1 1.863739760390000e-1 1.878709477510000e-1 1.893799432670000e-1
1.909010591640000e-1 1.924343927940000e-1 1.939800422910000e-1 1.955381065770000e-1
1.971086853680000e-1 1.986918791830000e-1 2.002877893450000e-1 2.018965179950000e-1
2.035181680900000e-1 2.051528434180000e-1 2.068006485980000e-1 2.084616890900000e-1
2.101360712010000e-1 2.118239020920000e-1 2.135252897860000e-1 2.152403431710000e-1
2.169691720110000e-1 2.187118869520000e-1 2.204685995290000e-1 2.222394221710000e-1
2.240244682130000e-1 2.258238518960000e-1 2.276376883840000e-1 2.294660937610000e-1
2.313091850460000e-1 2.331670801990000e-1 2.350398981230000e-1 2.369277586820000e-1
2.388307826980000e-1 2.407490919660000e-1 2.426828092580000e-1 2.446320583320000e-1
2.465969639420000e-1 2.485776518410000e-1 2.505742487950000e-1 2.525868825870000e-1
2.546156820250000e-1 2.566607769540000e-1 2.587222982600000e-1 2.608003778810000e-1
2.628951488160000e-1 2.650067451300000e-1 2.671353019660000e-1 2.692809555520000e-1
2.714438432120000e-1 2.736241033700000e-1 2.758218755650000e-1 2.780373004530000e-1
2.802705198240000e-1 2.825216766030000e-1 2.847909148670000e-1 2.870783798460000e-1
2.893842179390000e-1 2.917085767210000e-1 2.940516049520000e-1 2.964134525850000e-1
2.987942707810000e-1 3.011942119120000e-1 3.036134295760000e-1 3.060520786020000e-1
3.085103150660000e-1 3.109882962960000e-1 3.134861808830000e-1 3.160041286920000e-1
3.185423008730000e-1 3.211008598710000e-1 3.236799694330000e-1 3.262797946230000e-1
3.289005018320000e-1 3.315422587850000e-1 3.342052345560000e-1 3.368895995760000e-1
3.395955256450000e-1 3.423231859440000e-1 3.450727550430000e-1 3.478444089170000e-1
3.506383249520000e-1 3.534546819590000e-1 3.562936601860000e-1 3.591554413290000e-1
3.620402085430000e-1 3.649481464540000e-1 3.678794411710000e-1 3.708342802980000e-1
3.738128529450000e-1 3.768153497430000e-1 3.798419628510000e-1 3.828928859750000e-1
3.859683143740000e-1 3.890684448770000e-1 3.921934758940000e-1 3.953436074260000e-1
3.985190410850000e-1 4.017199800979999e-1 4.049466293270000e-1 4.081991952780000e-1
4.114778861170000e-1 4.147829116820000e-1 4.181144834940000e-1 4.214728147760000e-1
4.248581204620000e-1 4.282706172130000e-1 4.317105234290000e-1 4.351780592660000e-1
4.386734466480000e-1 4.421969092800000e-1 4.457486726650000e-1 4.493289641170001e-1
4.529380127770001e-1 4.565760496230000e-1 4.602433074930000e-1 4.639400210920000e-1
4.676664270100000e-1 4.714227637390000e-1 4.752092716860000e-1 4.790261931890000e-1
4.828737725310000e-1 4.867522559600000e-1 4.906618916990000e-1 4.946029299670000e-1
4.985756229910000e-1 5.025802250250000e-1 5.066169923660000e-1 5.106861833660000e-1
5.147880584570000e-1 5.189228801590000e-1 5.230909131030001e-1 5.272924240430000e-1
5.315276818790000e-1 5.357969576670000e-1 5.401005246440000e-1 5.444386582389999e-1
5.488116360939999e-1 5.532197380810000e-1 5.576632463199999e-1 5.621424451969999e-1
5.666576213820001e-1 5.712090638490000e-1 5.757970638900000e-1 5.804219151410001e-1
5.850839135919999e-1 5.897833576130001e-1 5.945205479700000e-1 5.992957878460000e-1
6.041093828560000e-1 6.089616410730000e-1 6.138528730430000e-1 6.187833918059999e-1
6.237535129179999e-1 6.287635544670001e-1 6.338138370989999e-1 6.389046840320000e-1
6.440364210829999e-1 6.492093766850000e-1 6.544238819090000e-1 6.596802704840000e-1
6.649788788220000e-1 6.703200460360001e-1 6.757041139610001e-1 6.811314271800000e-1
6.866023330420000e-1 6.921171816890000e-1 6.976763260710000e-1 7.032801219760000e-1
7.089289280499999e-1 7.146231058160000e-1 7.203630197050001e-1 7.261490370740001e-1
7.319815282280000e-1 7.378608664510001e-1 7.437874280200000e-1 7.497615922390000e-1
7.557837414560000e-1 7.618542610900000e-1 7.679735396570000e-1 7.741419687920001e-1
7.803599432780000e-1 7.866278610670000e-1 7.929461233070000e-1 7.993151343690000e-1
8.057353018730000e-1 8.122070367119999e-1 8.187307530780000e-1 8.253068684919999e-1
8.319358038270000e-1 8.386179833370001e-1 8.453538346849999e-1 8.521437889660000e-1
8.589882807410000e-1 8.658877480590000e-1 8.728426324890000e-1 8.798533791450000e-1
8.869204367170001e-1 8.940442575000001e-1 9.012252974210000e-1 9.084640160690000e-1
9.157608767230000e-1 9.231163463870001e-1 9.305308958110000e-1 9.380049995309999e-1
9.455391358900000e-1 9.531337870780000e-1 9.607894391520000e-1 9.685065820789999e-1
9.762857097580000e-1 9.841273200550001e-1 9.920319148370000e-1 1.000000000000000e0
1.008032085500000e0 1.016128685410000e0 1.024290317890000e0 1.032517505310000e0
1.040810774190000e0 1.049170655320000e0 1.057597683740000e0 1.066092398760000e0
1.074655344060000e0 1.083287067670000e0 1.091988122030000e0 1.100759063990000e0
1.109600454920000e0 1.118512860650000e0 1.127496851580000e0 1.136553002700000e0
1.145681893590000e0 1.154884108520000e0 1.164160236430000e0 1.173510870990000e0
1.182936610650000e0 1.192438058650000e0 1.202015823100000e0 1.211670516960000e0
1.221402758160000e0 1.231213169550000e0 1.241102379000000e0 1.251071019430000e0
1.261119728830000e0 1.271249150320000e0 1.281459932190000e0 1.291752727940000e0
1.302128196300000e0 1.312587001310000e0 1.323129812340000e0 1.333757304120000e0
1.344470156830000e0 1.355269056090000e0 1.366154693030000e0 1.377127764340000e0
1.388188972290000e0 1.399339024810000e0 1.410578635510000e0 1.421908523720000e0
1.433329414560000e0 1.444842038970000e0 1.456447133770000e0 1.468145441680000e0
1.479937711400000e0 1.491824697640000e0 1.503807161170000e0 1.515885868870000e0
1.528061593780000e0 1.540335115160000e0 1.552707218510000e0 1.565178695650000e0
1.577750344770000e0 1.590422970440000e0 1.603197383730000e0 1.616074402190000e0
1.629054849970000e0 1.642139557820000e0 1.655329363160000e0 1.668625110140000e0
1.682027649700000e0 1.695537839600000e0 1.709156544510000e0 1.722884636010000e0
1.736722992720000e0 1.750672500300000e0 1.764734051510000e0 1.778908546300000e0
1.793196891850000e0 1.807600002610000e0 1.822118800390000e0 1.836754214390000e0
1.851507181290000e0 1.866378645290000e0 1.881369558150000e0 1.896480879300000e0
1.911713575880000e0 1.927068622790000e0 1.942547002740000e0 1.958149706360000e0
1.973877732230000e0 1.989732086950000e0 2.005713785200000e0 2.021823849820000e0
2.038063311860000e0 2.054433210640000e0 2.070934593850000e0 2.087568517590000e0
2.104336046420000e0 2.121238253470000e0 2.138276220500000e0 2.155451037930000e0
2.172763804970000e0 2.190215629630000e0 2.207807628840000e0 2.225540928490000e0
2.243416663520000e0 2.261435977990000e0 2.279600025120000e0 2.297909967440000e0
2.316366976780000e0 2.334972234400000e0 2.353726931030000e0 2.372632267000000e0
2.391689452240000e0 2.410899706420000e0 2.430264259000000e0 2.449784349330000e0
2.469461226690000e0 2.489296150410000e0 2.509290389940000e0 2.529445224900000e0
2.549761945230000e0 2.570241851190000e0 2.590886253500000e0 2.611696473420000e0
2.632673842810000e0 2.653819704220000e0 2.675135411000000e0 2.696622327350000e0
2.718281828460000e0 2.740115300530000e0 2.762124140920000e0 2.784309758190000e0
2.806673572240000e0 2.829217014350000e0 2.851941527320000e0 2.874848565520000e0
2.897939595010000e0 2.921216093630000e0 2.944679551070000e0 2.968331469000000e0
2.992173361170000e0 3.016206753450000e0 3.040433183990000e0 3.064854203290000e0
3.089471374310000e0 3.114286272550000e0 3.139300486180000e0 3.164515616110000e0
3.189933276120000e0 3.215555092940000e0 3.241382706390000e0 3.267417769440000e0
3.293661948350000e0 3.320116922740000e0 3.346784385740000e0 3.373666044090000e0
3.400763618220000e0 3.428078842390000e0 3.455613464760000e0 3.483369247580000e0
3.511347967220000e0 3.539551414330000e0 3.567981393940000e0 3.596639725570000e0
3.625528243370000e0 3.654648796220000e0 3.684003247840000e0 3.713593476930000e0
3.743421377260000e0 3.773488857840000e0 3.803797843000000e0 3.834350272510000e0
3.865148101760000e0 3.896193301800000e0 3.927487859540000e0 3.959033777840000e0
3.990833075660000e0 4.022887788160000e0 4.055199966840000e0 4.087771679720000e0
4.120605011370000e0 4.153702063150000e0 4.187064953280000e0 4.220695817000000e0
4.254596806690000e0 4.288770092020000e0 4.323217860110000e0 4.357942315620000e0
4.392945680920000e0 4.428230196240000e0 4.463798119810000e0 4.499651727980000e0
4.535793315400000e0 4.572225195140000e0 4.608949698850000e0 4.645969176920000e0
4.683285998600000e0 4.720902552180000e0 4.758821245140000e0 4.797044504280000e0
4.835574775900000e0 4.874414525970000e0 4.913566240220000e0 4.953032424400000e0
4.992815604330000e0 5.032918326170000e0 5.073343156510000e0 5.114092682530000e0
5.155169512230000e0 5.196576274550000e0 5.238315619510000e0 5.280390218470000e0
5.322802764200000e0 5.365555971120000e0 5.408652575460000e0 5.452095335410000e0
5.495887031320000e0 5.540030465880000e0 5.584528464280000e0 5.629383874400000e0
5.674599567020000e0 5.720178435940000e0 5.766123398240000e0 5.812437394400000e0
5.859123388540000e0 5.906184368580000e0 5.953623346430000e0 6.001443358210000e0
6.049647464410000e0 6.098238750120000e0 6.147220325180000e0 6.196595324450000e0
6.246366907930000e0 6.296538261030000e0 6.347112594720000e0 6.398093145790000e0
6.449483177000000e0 6.501285977330000e0 6.553504862190000e0 6.606143173600000e0
6.659204280420000e0 6.712691578590000e0 6.766608491310000e0 6.820958469290000e0
6.875744990940000e0 6.930971562610000e0 6.986641718830000e0 7.042759022500000e0
7.099327065160000e0 7.156349467170000e0 7.213829877990000e0 7.271771976380000e0
7.330179470660000e0 7.389056098930000e0 7.448405629310000e0 7.508231860200000e0
7.568538620490000e0 7.629329769830000e0 7.690609198880000e0 7.752380829540000e0
7.814648615230000e0 7.877416541090000e0 7.940688624300000e0 8.004468914300000e0
8.068761493029999e0 8.133570475260001e0 8.198900008770000e0 8.264754274680000e0
8.331137487690000e0 8.398053896340000e0 8.465507783300000e0 8.533503465650000e0
8.602045295140000e0 8.671137658459999e0 8.740784977560001e0 8.810991709870001e0
8.881762348660001e0 8.953101423270001e0 9.025013499430001e0 9.097503179540000e0
9.170575102950000e0 9.244233946300000e0 9.318484423779999e0 9.393331287440001e0
9.468779327509999e0 9.544833372690000e0 9.621498290470001e0 9.698778987410000e0
9.776680409530000e0 9.855207542530000e0 9.934365412169999e0 1.001415908460000e1
1.009459366660000e1 1.017567430610000e1 1.025740619220000e1 1.033979455580000e1
1.042284466970000e1 1.050656184930000e1 1.059095145240000e1 1.067601888010000e1
1.076176957660000e1 1.084820903000000e1 1.093534277250000e1 1.102317638060000e1
1.111171547590000e1 1.120096572470000e1 1.129093283910000e1 1.138162257710000e1
1.147304074280000e1 1.156519318700000e1 1.165808580760000e1 1.175172454960000e1
1.184611540600000e1 1.194126441780000e1 1.203717767470000e1 1.213386131500000e1
1.223132152660000e1 1.232956454690000e1 1.242859666360000e1 1.252842421470000e1
1.262905358920000e1 1.273049122750000e1 1.283274362150000e1 1.293581731550000e1
1.303971890630000e1 1.314445504350000e1 1.325003243030000e1 1.335645782370000e1
1.346373803500000e1 1.357187993010000e1 1.368089043020000e1 1.379077651190000e1
1.390154520800000e1 1.401320360770000e1 1.412575885730000e1 1.423921816030000e1
1.435358877800000e1 1.446887803040000e1 1.458509329590000e1 1.470224201230000e1
1.482033167730000e1 1.493936984850000e1 1.505936414450000e1 1.518032224500000e1
1.530225189120000e1 1.542516088680000e1 1.554905709800000e1 1.567394845410000e1
1.579984294830000e1 1.592674863780000e1 1.605467364460000e1 1.618362615610000e1
1.631361442520000e1 1.644464677110000e1 1.657673158010000e1 1.670987730550000e1
1.684409246880000e1 1.697938565970000e1 1.711576553710000e1 1.725324082940000e1
1.739182033500000e1 1.753151292300000e1 1.767232753380000e1 1.781427317960000e1
1.795735894500000e1 1.810159398750000e1 1.824698753810000e1 1.839354890220000e1
1.854128745970000e1 1.869021266600000e1 1.884033405220000e1 1.899166122620000e1
1.914420387310000e1 1.929797175550000e1 1.945297471470000e1 1.960922267090000e1
1.976672562410000e1 1.992549365440000e1 2.008553692320000e1 2.024686567320000e1
2.040949022940000e1 2.057342100010000e1 2.073866847660000e1 2.090524323510000e1
2.107315593620000e1 2.124241732660000e1 2.141303823890000e1 2.158502959290000e1
2.175840239620000e1 2.193316774470000e1 2.210933682340000e1 2.228692090720000e1
2.246593136150000e1 2.264637964320000e1 2.282827730080000e1 2.301163597600000e1
2.319646740380000e1 2.338278341340000e1 2.357059592910000e1 2.375991697100000e1
2.395075865560000e1 2.414313319710000e1 2.433705290720000e1 2.453253019710000e1
2.472957757730000e1 2.492820765890000e1 2.512843315430001e1 2.533026687790001e1
2.553372174740000e1 2.573881078370000e1 2.594554711270000e1 2.615394396550000e1
2.636401467970000e1 2.657577269990000e1 2.678923157850000e1 2.700440497720000e1
2.722130666690000e1 2.743995052960000e1 2.766035055850000e1 2.788252085930000e1
2.810647565090000e1 2.833222926650000e1 2.855979615450000e1 2.878919087920000e1
2.902042812200000e1 2.925352268200000e1 2.948848947750000e1 2.972534354640000e1
2.996410004740000e1 3.020477426100000e1 3.044738159050000e1 3.069193756290000e1
3.093845782970000e1 3.118695816830000e1 3.143745448290000e1 3.168996280540000e1
3.194449929630000e1 3.220108024600000e1 3.245972207590000e1 3.272044133900000e1
3.298325472160000e1 3.324817904370000e1 3.351523126070000e1 3.378442846380000e1
3.405578788200000e1 3.432932688220000e1 3.460506297100000e1 3.488301379570000e1
3.516319714510000e1 3.544563095120000e1 3.573033328970000e1 3.601732238180000e1
3.630661659480000e1 3.659823444370000e1 3.689219459200000e1 3.718851585340000e1
3.748721719260000e1 3.778831772640000e1 3.809183672540000e1 3.839779361500000e1
3.870620797650000e1 3.901709954850000e1 3.933048822820000e1 3.964639407260000e1
3.996483729970000e1 4.028583829010000e1 4.060941758780000e1 4.093559590220000e1
4.126439410860001e1 4.159583325040000e1 4.192993453970000e1 4.226671935910001e1
4.260620926300000e1 4.294842597880001e1 4.329339140850000e1 4.364112763010001e1
4.399165689870000e1 4.434500164840000e1 4.470118449330000e1 4.506022822930000e1
4.542215583530001e1 4.578699047470000e1 4.615475549720000e1 4.652547443980001e1
4.689917102860000e1 4.727586918040000e1 4.765559300390001e1 4.803836680170001e1
4.842421507130000e1 4.881316250730000e1 4.920523400230000e1 4.960045464900000e1
4.999884974180000e1 5.040044477810000e1 5.080526546000001e1 5.121333769620001e1
5.162468760360000e1 5.203934150850000e1 5.245732594910001e1 5.287866767640001e1
5.330339365660000e1 5.373153107210000e1 5.416310732390000e1 5.459815003310000e1
5.503668704260001e1 5.547874641880000e1 5.592435645370000e1 5.637354566650000e1
5.682634280550000e1 5.728277684980000e1 5.774287701140000e1 5.820667273680001e1
5.867419370910000e1 5.914546984990000e1 5.962053132090000e1 6.009940852630001e1
6.058213211430001e1 6.106873297950000e1 6.155924226440000e1 6.205369136190001e1