<UPF version="2.0.1">
<PP_INFO>
Generated by new atomic code, or converted to UPF format
Author:
Generation date:
Pseudopotential type: NC
Element: O
Functional:  SLA  LYP  B88  BLYP
Suggested minimum cutoff for wavefunctions:   0. Ry
Suggested minimum cutoff for charge density:   0. Ry
The Pseudo was generated with a Non-Relativistic Calculation
L component and cutoff radius for Local Potential:  0   0.0000
Valence configuration:
nl pn  l   occ       Rcut    Rcut US       E pseu
2S  0  0  2.00      1.310      0.000     0.000000
2P  0  1  4.00      0.000      0.000     0.000000
Generation configuration: not available.
</PP_INFO>
<!--
END OF HUMAN READABLE SECTION
-->
<PP_HEADER 
author=""
l_max="0"
l_max_rho="0"
l_local="0"
has_wfc="false"
generated="Generated by new atomic code, or converted to UPF format"
is_coulomb="false"
comment=""
date=""
number_of_proj="1"
rho_cutoff="0.000000000000e0"
has_gipaw="false"
total_psenergy="0.000000000000e0"
number_of_wfc="2"
pseudo_type="NC"
is_ultrasoft="false"
functional=" SLA  LYP  B88  BLYP"
element="O "
is_paw="false"
z_valence="6.000000000000e0"
wfc_cutoff="0.000000000000e0"
paw_as_gipaw="false"
mesh_size="285"
relativistic="no"
core_correction="false"
has_so="false"
/>
<PP_MESH dx="5.000000000000e-2" mesh="285" xmin="-8.000000000000e0" rmax="6.159363013670e1" zmesh="8.000000000000e0">
<PP_R>
4.193282848780001e-5 4.408277057849999e-5 4.634294255740000e-5 4.871899603160000e-5
5.121687237250000e-5 5.384281757200000e-5 5.660339786080000e-5 5.950551612780000e-5
6.255642918010000e-5 6.576376588950001e-5 6.913554626850001e-5 7.268020152419998e-5
7.640659514119998e-5 8.032404504439999e-5 8.444234689920000e-5 8.877179860529999e-5
9.332322604709999e-5 9.810801016390000e-5 1.031381154080000e-4 1.084261196630000e-4
1.139852456940000e-4 1.198293942120000e-4 1.259731786310000e-4 1.324319616130000e-4
1.392218934810000e-4 1.463599525990000e-4 1.538639878340000e-4 1.617527631830000e-4
1.700460046930000e-4 1.787644497880000e-4 1.879298991220000e-4 1.975652710920000e-4
2.076946591470000e-4 2.183433920330000e-4 2.295380971290000e-4 2.413067670280000e-4
2.536788295370001e-4 2.666852212550000e-4 2.803584649360000e-4 2.947327508110000e-4
3.098440220830001e-4 3.257300648010000e-4 3.424306023460000e-4 3.599873947610000e-4
3.784443431720000e-4 3.978475995639999e-4 4.182456821840000e-4 4.396895968640000e-4
4.622329645600000e-4 4.859321554349999e-4 5.108464298079999e-4 5.370380863439999e-4
5.645726178269999e-4 5.935188749260001e-4 6.239492383640001e-4 6.559397998979999e-4
6.895705525950000e-4 7.249255908549999e-4 7.620933206890000e-4 8.011666807819999e-4
8.422433748860001e-4 8.854261161320000e-4 9.308228838660002e-4 9.785471936530000e-4
1.028718381130000e-3 1.081461900390000e-3 1.136909637710000e-3 1.195200241320000e-3
1.256479468080000e-3 1.320900547980000e-3 1.388624567280000e-3 1.459820871300000e-3
1.534667487880000e-3 1.613351572560000e-3 1.696069876530000e-3 1.783029238620000e-3
1.874447102560000e-3 1.970552060610000e-3 2.071584425220000e-3 2.177796829940000e-3
2.289454861090000e-3 2.406837721920000e-3 2.530238930730000e-3 2.659967054800001e-3
2.796346482020000e-3 2.939718232000000e-3 3.090440808790000e-3 3.248891097340000e-3
3.415465305909999e-3 3.590579956780000e-3 3.774672927790000e-3 3.968204547260000e-3
4.171658745040000e-3 4.385544262610000e-3 4.610395925160000e-3 4.846775978970000e-3
5.095275497299999e-3 5.356515858380000e-3 5.631150299190000e-3 5.919865548890000e-3
6.223383545980000e-3 6.542463243549999e-3 6.877902507050000e-3 7.230540109350001e-3
7.601257828150000e-3 7.990982650840000e-3 8.400689092470000e-3 8.831401632550000e-3
9.284197276790000e-3 9.760208250140000e-3 1.026062482800000e-2 1.078669831240000e-2
1.133974416120000e-2 1.192114527690000e-2 1.253235546540000e-2 1.317490307020000e-2
1.385039479530000e-2 1.456051972170000e-2 1.530705353160000e-2 1.609186294850000e-2
1.691691040460000e-2 1.778425894830000e-2 1.869607740280000e-2 1.965464578920000e-2
2.066236102770000e-2 2.172174293130000e-2 2.283544050660000e-2 2.400623857760000e-2
2.523706474930000e-2 2.653099672830000e-2 2.789127001860000e-2 2.932128601170000e-2
3.082462049270000e-2 3.240503258070000e-2 3.406647412930000e-2 3.581309960750001e-2
3.764927648900001e-2 3.957959617240000e-2 4.160888546230001e-2 4.374221863890000e-2
4.598493014639999e-2 4.834262793180000e-2 5.082120746760000e-2 5.342686649360000e-2
5.616612051470000e-2 5.904581909260001e-2 6.207316297389999e-2 6.525572209510000e-2
6.860145451179999e-2 7.211872629759998e-2 7.581633246410000e-2 7.970351895270000e-2
8.379000575450000e-2 8.808601121479999e-2 9.260227758519999e-2 9.735009788390002e-2
1.023413441350000e-1 1.075884970530000e-1 1.131046772540000e-1 1.189036780630000e-1
1.250000000000000e-1 1.314088870470000e-1 1.381463647590000e-1 1.452292803410000e-1
1.526753447700000e-1 1.605031770860000e-1 1.687323509470000e-1 1.773834435740000e-1
1.864780872050000e-1 1.960390231860000e-1 2.060901588380000e-1 2.166566272330000e-1
2.277648500490000e-1 2.394426036270000e-1 2.517190884340000e-1 2.646250020770000e-1
2.781926160620000e-1 2.924558564910000e-1 3.074503888950000e-1 3.232137074140000e-1
3.397852285570000e-1 3.572063897580000e-1 3.755207529930000e-1 3.947741137110000e-1
4.150146153420000e-1 4.362928696830000e-1 4.586620834520000e-1 4.821781913370000e-1
5.068999958560000e-1 5.328893143959999e-1 5.602111337920000e-1 5.889337728239999e-1
6.191290530490000e-1 6.508724783970000e-1 6.842434239660000e-1 7.193253345010000e-1
7.562059330520000e-1 7.949774403249999e-1 8.357368052850001e-1 8.785859475740001e-1
9.236320123660001e-1 9.709876382880001e-1 1.020771239070000e0 1.073107299650000e0
1.128126687430000e0 1.185966979540000e0 1.246772806850000e0 1.310696215590000e0
1.377897047580000e0 1.448543339900000e0 1.522811745090000e0 1.600887972830000e0
1.682967254380000e0 1.769254830670000e0 1.859966465610000e0 1.955328985520000e0
2.055580846390000e0 2.160972730070000e0 2.271768171180000e0 2.388244216030000e0
2.510692115400000e0 2.639418052820000e0 2.774743910180000e0 2.917008072620000e0
3.066566274640000e0 3.223792489650000e0 3.389079865080000e0 3.562841705470000e0
3.745512505920000e0 3.937549038590000e0 4.139431494840000e0 4.351664685950000e0
4.574779305460000e0 4.809333256130000e0 5.055913045010000e0 5.315135250010000e0
5.587648061660000e0 5.874132903950000e0 6.175306138190000e0 6.491920854350000e0
6.824768754140000e0 7.174682130680000e0 7.542535949670000e0 7.929250037270000e0
8.335791380120000e0 8.763176543340000e0 9.212474212449999e0 9.684807865660000e0
1.018135858310000e1 1.070336800030000e1 1.125214141260000e1 1.182905103940000e1
1.243553945520000e1 1.307312319710000e1 1.374339655650000e1 1.444803556590000e1
1.518880218980000e1 1.596754873080000e1 1.678622246060000e1 1.764687049020000e1
1.855164488780000e1 1.950280806080000e1 2.050273841250000e1 2.155393628960000e1
2.265903023440000e1 2.382078355730000e1 2.504210124680000e1 2.632603723330000e1
2.767580202550000e1 2.909477073850000e1 3.058649153300000e1 3.215469448820000e1
3.380330092830000e1 3.553643322800000e1 3.735842512090001e1 3.927383253570000e1
4.128744498870001e1 4.340429755980000e1 4.562968348320000e1 4.796916738260000e1
5.042859918660000e1 5.301412875560001e1 5.573222126030000e1 5.858967334780001e1
6.159363013670000e1
</PP_R>
<PP_RAB>
2.096641424390000e-6 2.204138528930000e-6 2.317147127870000e-6 2.435949801580000e-6
2.560843618620000e-6 2.692140878600000e-6 2.830169893040000e-6 2.975275806390000e-6
3.127821459000000e-6 3.288188294479999e-6 3.456777313420000e-6 3.634010076209999e-6
3.820329757060001e-6 4.016202252219999e-6 4.222117344960000e-6 4.438589930269999e-6
4.666161302350000e-6 4.905400508190000e-6 5.156905770410000e-6 5.421305983169999e-6
5.699262284720001e-6 5.991469710590000e-6 6.298658931549999e-6 6.621598080669999e-6
6.961094674029999e-6 7.317997629939999e-6 7.693199391710001e-6 8.087638159160001e-6
8.502300234669999e-6 8.938222489419999e-6 9.396494956110001e-6 9.878263554600000e-6
1.038473295730000e-5 1.091716960160000e-5 1.147690485640000e-5 1.206533835140000e-5
1.268394147680000e-5 1.333426106270000e-5 1.401792324680000e-5 1.473663754060000e-5
1.549220110420000e-5 1.628650324010000e-5 1.712153011730000e-5 1.799936973810000e-5
1.892221715860000e-5 1.989237997820000e-5 2.091228410920000e-5 2.198447984320000e-5
2.311164822800000e-5 2.429660777170001e-5 2.554232149040000e-5 2.685190431720000e-5
2.822863089130000e-5 2.967594374630000e-5 3.119746191820000e-5 3.279698999489999e-5
3.447852762979999e-5 3.624627954280000e-5 3.810466603450000e-5 4.005833403910000e-5
4.211216874430001e-5 4.427130580660000e-5 4.654114419330001e-5 4.892735968270000e-5
5.143591905640000e-5 5.407309501950000e-5 5.684548188560000e-5 5.976001206590000e-5
6.282397340400001e-5 6.604502739910001e-5 6.943122836400001e-5 7.299104356499999e-5
7.673337439420001e-5 8.066757862799999e-5 8.480349382629997e-5 8.915146193120000e-5
9.372235512800000e-5 9.852760303029999e-5 1.035792212610000e-4 1.088898414970000e-4
1.144727430550000e-4 1.203418860960000e-4 1.265119465360000e-4 1.329983527400000e-4
1.398173241010000e-4 1.469859116000000e-4 1.545220404400000e-4 1.624445548670000e-4
1.707732652960000e-4 1.795289978390000e-4 1.887336463890000e-4 1.984102273630000e-4
2.085829372520000e-4 2.192772131300000e-4 2.305197962580000e-4 2.423387989480000e-4
2.547637748650000e-4 2.678257929190000e-4 2.815575149600000e-4 2.959932774450000e-4
3.111691772990000e-4 3.271231621780001e-4 3.438951253529999e-4 3.615270054680000e-4
3.800628914080000e-4 3.995491325420000e-4 4.200344546230000e-4 4.415700816280000e-4
4.642098638400000e-4 4.880104125070000e-4 5.130312413990000e-4 5.393349156209998e-4
5.669872080589999e-4 5.960572638470000e-4 6.266177732679999e-4 6.587451535120000e-4
6.925197397650001e-4 7.280259860840000e-4 7.653526765810000e-4 8.045931474240000e-4
8.458455202289999e-4 8.892129474160001e-4 9.348038701410001e-4 9.827322894600002e-4
1.033118051380000e-3 1.086087146570000e-3 1.141772025330000e-3 1.200311928880000e-3
1.261853237470000e-3 1.326549836420000e-3 1.394563500930000e-3 1.466064300590000e-3
1.541231024640000e-3 1.620251629040000e-3 1.703323706460000e-3 1.790654980380000e-3
1.882463824450000e-3 1.978979808620000e-3 2.080444273110000e-3 2.187110931940000e-3
2.299246507319999e-3 2.417131396590000e-3 2.541060373380000e-3 2.671343324680000e-3
2.808306025730000e-3 2.952290954630000e-3 3.103658148700000e-3 3.262786104760000e-3
3.430072725590000e-3 3.605936314879999e-3 3.790816623200000e-3 3.985175947640001e-3
4.189500287720000e-3 4.404300560739999e-3 4.630113879260000e-3 4.867504894200001e-3
5.117067206739999e-3 5.379424852660000e-3 5.655233862719999e-3 5.945183903130000e-3
6.250000000000000e-3 6.570444352350000e-3 6.907318237969999e-3 7.261464017050000e-3
7.633767238500000e-3 8.025158854299999e-3 8.436617547350000e-3 8.869172178710000e-3
9.323904360259998e-3 9.801951159310001e-3 1.030450794190000e-2 1.083283136170000e-2
1.138824250240000e-2 1.197213018130000e-2 1.258595442170000e-2 1.323125010380000e-2
1.390963080310000e-2 1.462279282450000e-2 1.537251944470000e-2 1.616068537070000e-2
1.698926142790000e-2 1.786031948790000e-2 1.877603764970000e-2 1.973870568560000e-2
2.075073076710000e-2 2.181464348410000e-2 2.293310417260000e-2 2.410890956690000e-2
2.534499979280000e-2 2.664446571980000e-2 2.801055668960000e-2 2.944668864120001e-2
3.095645265250000e-2 3.254362391990000e-2 3.421217119830000e-2 3.596626672500000e-2
3.781029665260000e-2 3.974887201630000e-2 4.178684026420000e-2 4.392929737870000e-2
4.618160061830000e-2 4.854938191440000e-2 5.103856195350000e-2 5.365536498240000e-2
5.640633437150000e-2 5.929834897720000e-2 6.233864034260000e-2 6.553481077950001e-2
6.889485237900001e-2 7.242716699510000e-2 7.614058725440000e-2 8.004439864160000e-2
8.414836271879999e-2 8.846274153360000e-2 9.299832328050000e-2 9.776644927620000e-2
1.027790423190000e-1 1.080486365040000e-1 1.135884085590000e-1 1.194122108010000e-1
1.255346057700000e-1 1.319709026410000e-1 1.387371955090000e-1 1.458504036310000e-1
1.533283137320000e-1 1.611896244820000e-1 1.694539932540000e-1 1.781420852740000e-1
1.872756252960000e-1 1.968774519300000e-1 2.069715747420000e-1 2.175832342980000e-1
2.287389652730000e-1 2.404666628060000e-1 2.527956522500000e-1 2.657567625000000e-1
2.793824030830000e-1 2.937066451970000e-1 3.087653069100000e-1 3.245960427180000e-1
3.412384377070000e-1 3.587341065340000e-1 3.771267974840000e-1 3.964625018630000e-1
4.167895690060000e-1 4.381588271670000e-1 4.606237106220000e-1 4.842403932830000e-1
5.090679291560000e-1 5.351684000140001e-1 5.626070706280000e-1 5.914525519680000e-1
6.217769727619999e-1 6.536561598570000e-1 6.871698278260000e-1 7.224017782950000e-1
7.594401094920000e-1 7.983774365380000e-1 8.393111230310000e-1 8.823435245090000e-1
9.275822443910000e-1 9.751404030400000e-1 1.025136920620000e0 1.077696814480000e0
1.132951511720000e0 1.191039177870000e0 1.252105062340000e0 1.316301861670000e0
1.383790101280000e0 1.454738536920000e0 1.529324576650000e0 1.607734724410000e0
1.690165046410000e0 1.776821661400000e0 1.867921256040000e0 1.963691626790000e0
2.064372249440000e0 2.170214877990000e0 2.281484174160000e0 2.398458369130000e0
2.521429959330000e0 2.650706437780000e0 2.786611063020000e0 2.929483667390000e0
3.079681506830000e0
</PP_RAB>
</PP_MESH>
<PP_LOCAL columns="4">
-3.675883800000000e1 -3.675883700000000e1 -3.675883600000001e1 -3.675883500000000e1
-3.675883400000000e1 -3.675883300000001e1 -3.675883300000001e1 -3.675883200000000e1
-3.675883100000000e1 -3.675882900000000e1 -3.675882800000000e1 -3.675882700000000e1
-3.675882600000000e1 -3.675882400000000e1 -3.675882200000000e1 -3.675882000000000e1
-3.675881700000000e1 -3.675881500000000e1 -3.675881300000000e1 -3.675881000000000e1
-3.675880600000000e1 -3.675880300000000e1 -3.675879800000000e1 -3.675879400000000e1
-3.675878900000000e1 -3.675878300000000e1 -3.675877700000000e1 -3.675877000000000e1
-3.675876300000001e1 -3.675875500000000e1 -3.675874600000000e1 -3.675873600000000e1
-3.675872400000000e1 -3.675871200000000e1 -3.675869800000001e1 -3.675868300000000e1
-3.675866700000000e1 -3.675864800000000e1 -3.675862800000000e1 -3.675860600000000e1
-3.675858100000000e1 -3.675855400000000e1 -3.675852300000000e1 -3.675849000000000e1
-3.675845300000001e1 -3.675841200000000e1 -3.675836700000000e1 -3.675831700000000e1
-3.675826200000000e1 -3.675820100000000e1 -3.675813400000000e1 -3.675806000000000e1
-3.675797700000000e1 -3.675788700000000e1 -3.675778600000001e1 -3.675767500000000e1
-3.675755300000001e1 -3.675741800000000e1 -3.675726800000001e1 -3.675710300000000e1
-3.675692000000000e1 -3.675671900000000e1 -3.675649600000000e1 -3.675625000000000e1
-3.675597800000000e1 -3.675567800000000e1 -3.675534700000000e1 -3.675498100000000e1
-3.675457600000000e1 -3.675413000000001e1 -3.675363700000000e1 -3.675309300000000e1
-3.675249200000000e1 -3.675182900000000e1 -3.675109700000000e1 -3.675029000000000e1
-3.674939900000000e1 -3.674841600000000e1 -3.674733200000000e1 -3.674613700000000e1
-3.674481900000000e1 -3.674336700000000e1 -3.674176700000000e1 -3.674000500000000e1
-3.673806400000000e1 -3.673592700000000e1 -3.673357700000000e1 -3.673099100000000e1
-3.672814900000001e1 -3.672502500000000e1 -3.672159400000000e1 -3.671782900000000e1
-3.671369800000000e1 -3.670917100000000e1 -3.670421000000001e1 -3.669878100000000e1
-3.669284300000001e1 -3.668635400000000e1 -3.667926900000000e1 -3.667154200000001e1
-3.666312200000000e1 -3.665395700000000e1 -3.664399300000000e1 -3.663317200000000e1
-3.662143500000000e1 -3.660872000000000e1 -3.659496300000000e1 -3.658009800000000e1
-3.656405800000000e1 -3.654677400000000e1 -3.652817400000000e1 -3.650818700000000e1
-3.648674000000000e1 -3.646376000000000e1 -3.643917400000000e1 -3.641290700000000e1
-3.638488800000000e1 -3.635504400000000e1 -3.632330600000000e1 -3.628960700000000e1
-3.625388200000000e1 -3.621607200000000e1 -3.617612100000001e1 -3.613398100000000e1
-3.608961100000000e1 -3.604297800000000e1 -3.599406000000000e1 -3.594284400000000e1
-3.588933100000000e1 -3.583353600000001e1 -3.577548800000001e1 -3.571523300000000e1
-3.565283400000000e1 -3.558837200000000e1 -3.552194600000000e1 -3.545367500000000e1
-3.538369600000000e1 -3.531216400000000e1 -3.523925100000000e1 -3.516514600000000e1
-3.509005200000000e1 -3.501418000000001e1 -3.493775300000000e1 -3.486099700000000e1
-3.478413900000001e1 -3.470740000000000e1 -3.463099400000000e1 -3.455512200000000e1
-3.447996300000000e1 -3.440567400000000e1 -3.433237900000000e1 -3.426016900000000e1
-3.418909700000000e1 -3.411916900000000e1 -3.405034300000000e1 -3.398252700000000e1
-3.391557300000001e1 -3.384927500000000e1 -3.378336900000000e1 -3.371752700000000e1
-3.365135900000000e1 -3.358440800000000e1 -3.351615200000000e1 -3.344599300000000e1
-3.337326400000000e1 -3.329721400000000e1 -3.321700800000000e1 -3.313171400000000e1
-3.304029600000000e1 -3.294159400000000e1 -3.283431000000000e1 -3.271698200000000e1
-3.258796400000000e1 -3.244538600000000e1 -3.228712700000000e1 -3.211076800000000e1
-3.191355700000000e1 -3.169235700000000e1 -3.144361200000001e1 -3.116330700000000e1
-3.084695100000000e1 -3.048957600000000e1 -3.008578100000000e1 -2.962985300000000e1
-2.911603100000000e1 -2.853907200000000e1 -2.789485700000000e1 -2.717943600000000e1
-2.638650500000000e1 -2.550799300000000e1 -2.453811200000001e1 -2.347572800000000e1
-2.232486000000000e1 -2.109518500000000e1 -1.980268000000000e1 -1.847009000000000e1
-1.712692600000000e1 -1.580876100000000e1 -1.455556900000000e1 -1.340891600000000e1
-1.240777300000000e1 -1.158274300000000e1 -1.094845500000000e1 -1.049425400000000e1
-1.017479000000000e1 -9.906435300000000e0 -9.584792500000001e0 -9.155483800000001e0
-8.708921500000001e0 -8.284182100000001e0 -7.880158300000000e0 -7.495838500000000e0
-7.130262200000000e0 -6.782515200000000e0 -6.451728000000000e0 -6.137073400000000e0
-5.837764800000000e0 -5.553053700000000e0 -5.282228100000000e0 -5.024610800000000e0
-4.779557600000000e0 -4.546455800000000e0 -4.324722600000000e0 -4.113803400000000e0
-3.913170800000000e0 -3.722323200000000e0 -3.540783400000000e0 -3.368097300000000e0
-3.203833300000000e0 -3.047580500000000e0 -2.898948200000000e0 -2.757564900000000e0
-2.623076800000000e0 -2.495147900000000e0 -2.373458100000000e0 -2.257703200000000e0
-2.147593700000000e0 -2.042854300000000e0 -1.943223100000000e0 -1.848451000000000e0
-1.758301000000000e0 -1.672547600000000e0 -1.590976500000000e0 -1.513383700000000e0
-1.439575100000000e0 -1.369366200000000e0 -1.302581400000000e0 -1.239053800000000e0
-1.178624400000000e0 -1.121142200000000e0 -1.066463500000000e0 -1.014451400000000e0
-9.649760400000000e-1 -9.179136100000001e-1 -8.731464300000001e-1 -8.305625800000001e-1
-7.900555600000000e-1 -7.515241000000001e-1 -7.148718400000000e-1 -6.800071200000000e-1
-6.468427900000000e-1 -6.152958900000000e-1 -5.852875600000001e-1 -5.567427499999999e-1
-5.295900800000000e-1 -5.037616700000001e-1 -4.791929200000000e-1 -4.558224100000000e-1
-4.335916900000000e-1 -4.124451700000000e-1 -3.923299800000000e-1 -3.731958200000000e-1
-3.549948500000000e-1 -3.376815500000000e-1 -3.212126200000000e-1 -3.055469000000000e-1
-2.906452000000000e-1 -2.764702700000000e-1 -2.629866500000000e-1 -2.501606400000000e-1
-2.379601600000000e-1 -2.263547100000000e-1 -2.153152600000000e-1 -2.048142100000000e-1
-1.948253000000000e-1
</PP_LOCAL>
<PP_NONLOCAL>
<PP_BETA.1 index="1" label="2S" angular_momentum="0" cutoff_radius_index="249" cutoff_radius="1.310000000000e0" ultrasoft_cutoff_radius="0.000000000000e0">
1.103581625360000e-3 1.160163475740000e-3 1.219646394090000e-3 1.282179003110000e-3
1.347917649300000e-3 1.417026858600000e-3 1.489679472150000e-3 1.566056975090000e-3
1.646350433450000e-3 1.730760526360000e-3 1.819498509440000e-3 1.912786334780000e-3
2.010857005610000e-3 2.113955720020000e-3 2.222340659990000e-3 2.336282467660000e-3
2.456066126930001e-3 2.581991309450000e-3 2.714373021530000e-3 2.853541901820000e-3
2.999846059709999e-3 3.153651420960000e-3 3.315342420660000e-3 3.485323824050000e-3
3.664020199900000e-3 3.851878645990000e-3 4.049368617410000e-3 4.256983890780000e-3
4.475244458820000e-3 4.704695123320001e-3 4.945910017210001e-3 5.199492175880000e-3
5.466075486860000e-3 5.746327647180001e-3 6.040947766900000e-3 6.350673768970000e-3
6.676280066780000e-3 7.018579875760000e-3 7.378430595059999e-3 7.756730772900000e-3
8.154426848760000e-3 8.572513253840000e-3 9.012034867640001e-3 9.474092225590001e-3
9.959839349410000e-3 1.047049123070000e-2 1.100732466990000e-2 1.157168225010000e-2
1.216497508500000e-2 1.278868666750000e-2 1.344437653380000e-2 1.413368447860000e-2
1.485833304200000e-2 1.562013669440000e-2 1.642099812620000e-2 1.726291962810000e-2
1.814800924480000e-2 1.907847711210000e-2 2.005665147480000e-2 2.108497800690000e-2
2.216602632430000e-2 2.330250281260000e-2 2.449724769260000e-2 2.575324894910000e-2
2.707364396700000e-2 2.846173756970000e-2 2.992100417200000e-2 3.145508519030000e-2
3.306781920390000e-2 3.476324285690000e-2 3.654559085670000e-2 3.841932134990000e-2
4.038911972539999e-2 4.245991324600000e-2 4.463687410960000e-2 4.692545544970000e-2
4.933137064070000e-2 5.186063964580000e-2 5.451958783199999e-2 5.731485939950000e-2
6.025344524470000e-2 6.334270123350000e-2 6.659034280400000e-2 7.000449250890000e-2
7.359368739450000e-2 7.736689822290000e-2 8.133357257220000e-2 8.550361460210000e-2
8.988745659470000e-2 9.449605983160001e-2 9.934094088040000e-2 1.044342316850000e-1
1.097886431790000e-1 1.154175861100000e-1 1.213351122020000e-1 1.275560400970000e-1
1.340959049800000e-1 1.409710637770000e-1 1.481987060210000e-1 1.557969026160000e-1
1.637846479870000e-1 1.721819113840000e-1 1.810096863540000e-1 1.902900371620000e-1
2.000461636200000e-1 2.103024741100000e-1 2.210845852670000e-1 2.324194513590000e-1
2.443354192650000e-1 2.568622467910000e-1 2.700312492660000e-1 2.838753390170000e-1
2.984291252320000e-1 3.137289792750000e-1 3.298131273640000e-1 3.467216973620000e-1
3.644970359560000e-1 3.831834454920000e-1 4.028276927769999e-1 4.234787690460000e-1
4.451882579479999e-1 4.680103974660000e-1 4.920021106240000e-1 5.172232650410001e-1
5.437368825400000e-1 5.716090217480000e-1 6.009092435680000e-1 6.317106165910000e-1
6.640898377010000e-1 6.981276802600000e-1 7.339088356440000e-1 7.715224442780000e-1
8.110620532380000e-1 8.526259707910000e-1 8.963175098210000e-1 9.422451857400000e-1
9.905229227920000e-1 1.041270313270000e0 1.094612970840000e0 1.150682889140000e0
1.209618467990000e0 1.271564877280000e0 1.336674433760000e0 1.405107108070000e0
1.477030154150000e0 1.552619192490000e0 1.632057875030000e0 1.715538617460000e0
1.803262455930000e0 1.895439646550000e0 1.992288974450000e0 2.094039350360000e0
2.200928352170000e0 2.313202798730000e0 2.431118874880000e0 2.554940250750000e0
2.684939205910000e0 2.821394274560000e0 2.964589722000000e0 3.114812501560000e0
3.272350889450000e0 3.437490144140000e0 3.610508969870000e0 3.791672151870000e0
3.981225440890000e0 4.179383722210000e0 4.386321199260000e0 4.602154217570000e0
4.826925680770000e0 5.060577166430000e0 5.302923804230000e0 5.553615746920000e0
5.812095912370000e0 6.077545252550000e0 6.348819400600000e0 6.624370220760000e0
6.902157122280000e0 7.179538167290000e0 7.453153219640000e0 7.718785444350000e0
7.971219348230000e0 8.204086558429999e0 8.409723386620000e0 8.579046512920000e0
8.701475508400000e0 8.764935168290000e0 8.755986981720000e0 8.660140892870000e0
8.462430816670000e0 8.148325626169999e0 7.705057243980000e0 7.123429813110000e0
6.400110234440000e0 5.540331597770000e0 4.560750302910000e0 3.492042161190000e0
2.380516939430000e0 1.287824764810000e0 2.876725910960000e-1 -5.414171790809999e-1
-1.127768694660000e0 -1.422046426620000e0 -1.414499829400000e0 -1.149832735140000e0
-7.332048957260000e-1 -3.175043509000000e-1 -5.659559047240000e-2 0.000000000000000e0
0.000000000000000e0 0.000000000000000e0 0.000000000000000e0 0.000000000000000e0
0.000000000000000e0 0.000000000000000e0 0.000000000000000e0 0.000000000000000e0
0.000000000000000e0 0.000000000000000e0 0.000000000000000e0 0.000000000000000e0
0.000000000000000e0 0.000000000000000e0 0.000000000000000e0 0.000000000000000e0
0.000000000000000e0 0.000000000000000e0 0.000000000000000e0 0.000000000000000e0
0.000000000000000e0 0.000000000000000e0 0.000000000000000e0 0.000000000000000e0
0.000000000000000e0 0.000000000000000e0 0.000000000000000e0 0.000000000000000e0
0.000000000000000e0 0.000000000000000e0 0.000000000000000e0 0.000000000000000e0
0.000000000000000e0 0.000000000000000e0 0.000000000000000e0 0.000000000000000e0
0.000000000000000e0 0.000000000000000e0 0.000000000000000e0 0.000000000000000e0
0.000000000000000e0 0.000000000000000e0 0.000000000000000e0 0.000000000000000e0
0.000000000000000e0 0.000000000000000e0 0.000000000000000e0 0.000000000000000e0
0.000000000000000e0 0.000000000000000e0 0.000000000000000e0 0.000000000000000e0
0.000000000000000e0 0.000000000000000e0 0.000000000000000e0 0.000000000000000e0
0.000000000000000e0 0.000000000000000e0 0.000000000000000e0 0.000000000000000e0
0.000000000000000e0 0.000000000000000e0 0.000000000000000e0 0.000000000000000e0
0.000000000000000e0 0.000000000000000e0 0.000000000000000e0 0.000000000000000e0
0.000000000000000e0 0.000000000000000e0 0.000000000000000e0 0.000000000000000e0
0.000000000000000e0 0.000000000000000e0 0.000000000000000e0 0.000000000000000e0
0.000000000000000e0
</PP_BETA.1>
<PP_DIJ>
4.506622836800000e-1
</PP_DIJ>
</PP_NONLOCAL>
<PP_PSWFC>
<PP_CHI.1 index="1" label="2S" l="0" occupation="2.000000000000e0" n="0" pseudo_energy="0.000000000000e0" cutoff_radius="1.310000000000e0" ultrasoft_cutoff_radius="0.000000000000e0">
6.022676800000001e-5 6.331466099999999e-5 6.656087299999999e-5 6.997352200000000e-5
7.356114099999999e-5 7.733270100000000e-5 8.129763400000002e-5 8.546585300000000e-5
8.984778100000000e-5 9.445437500000001e-5 9.929715399999999e-5 1.043882300000000e-4
1.097403300000000e-4 1.153668300000000e-4 1.212818200000000e-4 1.275000700000000e-4
1.340371400000000e-4 1.409093700000000e-4 1.481339500000000e-4 1.557289400000000e-4
1.637133300000000e-4 1.721070900000000e-4 1.809312100000000e-4 1.902077500000000e-4
1.999599100000000e-4 2.102120800000000e-4 2.209898800000000e-4 2.323202700000000e-4
2.442315900000000e-4 2.567536100000000e-4 2.699176500000000e-4 2.837566199999999e-4
2.983051300000000e-4 3.135995700000000e-4 3.296781599999999e-4 3.465811200000001e-4
3.643507100000000e-4 3.830313700000000e-4 4.026698100000000e-4 4.233151299999999e-4
4.450189600000000e-4 4.678355700000000e-4 4.918220100000001e-4 5.170382600000000e-4
5.435473800000000e-4 5.714156500000001e-4 6.007127500000000e-4 6.315119500000000e-4
6.638902600000001e-4 6.979286400000001e-4 7.337122000000001e-4 7.713304300000000e-4
8.108773800000000e-4 8.524519399999999e-4 8.961580800000000e-4 9.421050800000000e-4
9.904078299999998e-4 1.041187100000000e-3 1.094569900000000e-3 1.150689700000000e-3
1.209686800000000e-3 1.271708700000000e-3 1.336910600000000e-3 1.405455500000000e-3
1.477514700000000e-3 1.553268400000000e-3 1.632906200000000e-3 1.716627000000000e-3
1.804640300000000e-3 1.897166100000000e-3 1.994435800000000e-3 2.096692600000000e-3
2.204192200000000e-3 2.317203500000000e-3 2.436008900000000e-3 2.560905600000000e-3
2.692205800000000e-3 2.830237900000000e-3 2.975347100000000e-3 3.127895999999999e-3
3.288266300000000e-3 3.456858899999999e-3 3.634095400000001e-3 3.820418900000000e-3
4.016295300000000e-3 4.222214400000000e-3 4.438691100000000e-3 4.666266600000000e-3
4.905510000000000e-3 5.157019500000000e-3 5.421423900000000e-3 5.699384400000000e-3
5.991595900000000e-3 6.298789000000000e-3 6.621731899999999e-3 6.961231900000000e-3
7.318137899999999e-3 7.693342200000000e-3 8.087782900000001e-3 8.502446200000000e-3
8.938368699999998e-3 9.396640200000000e-3 9.878406399999999e-3 1.038487200000000e-2
1.091730200000000e-2 1.147702900000000e-2 1.206545100000000e-2 1.268403900000000e-2
1.333434000000000e-2 1.401797800000000e-2 1.473666200000000e-2 1.549218900000000e-2
1.628644700000000e-2 1.712142000000000e-2 1.799919500000000e-2 1.892196400000000e-2
1.989203400000000e-2 2.091182700000000e-2 2.198389200000000e-2 2.311090500000000e-2
2.429568000000000e-2 2.554117700000000e-2 2.685050400000000e-2 2.822693000000000e-2
2.967389000000000e-2 3.119499400000000e-2 3.279403700000000e-2 3.447500700000000e-2
3.624209400000000e-2 3.809970300000000e-2 4.005246300000000e-2 4.210523800000000e-2
4.426313700000001e-2 4.653153200000000e-2 4.891606400000001e-2 5.142266100000001e-2
5.405755000000000e-2 5.682727200000000e-2 5.973869900000000e-2 6.279904699999999e-2
6.601589400000001e-2 6.939719900000001e-2 7.295131700000001e-2 7.668701899999999e-2
8.061351000000000e-2 8.474045500000001e-2 8.907798900000000e-2 9.363674800000000e-2
9.842788600000000e-2 1.034631000000000e-1 1.087546400000000e-1 1.143153700000000e-1
1.201587300000000e-1 1.262988200000000e-1 1.327504000000000e-1 1.395288800000000e-1
1.466504100000000e-1 1.541318400000000e-1 1.619907900000000e-1 1.702456200000000e-1
1.789154800000000e-1 1.880203300000000e-1 1.975809200000000e-1 2.076188100000000e-1
2.181563800000000e-1 2.292168000000000e-1 2.408240300000000e-1 2.530027800000000e-1
2.657784900000000e-1 2.791772100000000e-1 2.932255900000000e-1 3.079507100000000e-1
3.233799700000000e-1 3.395408700000000e-1 3.564607900000000e-1 3.741666500000000e-1
3.926845100000000e-1 4.120390500000000e-1 4.322529100000000e-1 4.533458100000000e-1
4.753334799999999e-1 4.982262300000000e-1 5.220271600000000e-1 5.467298900000000e-1
5.723156000000000e-1 5.987493300000000e-1 6.259753700000000e-1 6.539114400000000e-1
6.824415500000000e-1 7.114075000000000e-1 7.405987900000000e-1 7.697412799999999e-1
7.984849800000000e-1 8.263920700000000e-1 8.529269100000000e-1 8.774506600000000e-1
8.992244700000001e-1 9.174259599999999e-1 9.311841800000000e-1 9.396373799999999e-1
9.420147000000000e-1 9.377364800000000e-1 9.265183600000000e-1 9.084531100000000e-1
8.840344300000000e-1 8.540878800000000e-1 8.195940300000000e-1 7.814495900000001e-1