<UPF version="2.0.1">
<PP_INFO>
Generated by new atomic code, or converted to UPF format
Author:
Generation date:
Pseudopotential type: NC
Element: C
Functional:  SLA  PW   TPSS TPSS
Suggested minimum cutoff for wavefunctions:   0. Ry
Suggested minimum cutoff for charge density:   0. Ry
The Pseudo was generated with a Non-Relativistic Calculation
L component and cutoff radius for Local Potential:  0   0.0000
Valence configuration:
nl pn  l   occ       Rcut    Rcut US       E pseu
2S  0  0  2.00      0.000      0.000     0.000000
2P  0  1  2.00      0.000      0.000     0.000000
Generation configuration: not available.
</PP_INFO>
<!--
END OF HUMAN READABLE SECTION
-->
<PP_HEADER 
author=""
has_wfc="false"
rho_cutoff="0.000000000000e0"
is_paw="false"
comment=""
element="C "
relativistic="no"
number_of_wfc="2"
l_max="0"
is_coulomb="false"
has_so="false"
l_local="0"
l_max_rho="0"
pseudo_type="NC"
core_correction="false"
total_psenergy="0.000000000000e0"
generated="Generated by new atomic code, or converted to UPF format"
wfc_cutoff="0.000000000000e0"
paw_as_gipaw="false"
mesh_size="1983"
has_gipaw="false"
functional=" SLA  PW   TPSS TPSS"
date=""
z_valence="4.000000000000e0"
number_of_proj="1"
is_ultrasoft="false"
/>
<PP_MESH dx="6.000000000000e-3" mesh="1983" xmin="-5.999999999999e0" rmax="6.035480303900e1" zmesh="6.000000000000e0">
<PP_R>
4.131253627780000e-4 4.156115661060000e-4 4.181127314950000e-4 4.206289489880000e-4
4.231603091680000e-4 4.257069031650000e-4 4.282688226570000e-4 4.308461598730000e-4
4.334390075970001e-4 4.360474591719999e-4 4.386716085020001e-4 4.413115500580000e-4
4.439673788770000e-4 4.466391905700001e-4 4.493270813220000e-4 4.520311478980000e-4
4.547514876430000e-4 4.574881984919999e-4 4.602413789640000e-4 4.630111281770000e-4
4.657975458390000e-4 4.686007322640000e-4 4.714207883660000e-4 4.742578156670000e-4
4.771119163009999e-4 4.799831930150000e-4 4.828717491759999e-4 4.857776887720000e-4
4.887011164170000e-4 4.916421373550000e-4 4.946008574630000e-4 4.975773832559999e-4
5.005718218880000e-4 5.035842811600000e-4 5.066148695200000e-4 5.096636960710001e-4
5.127308705690000e-4 5.158165034340000e-4 5.189207057490000e-4 5.220435892649999e-4
5.251852664070000e-4 5.283458502760001e-4 5.315254546519999e-4 5.347241940010000e-4
5.379421834800000e-4 5.411795389350001e-4 5.444363769120000e-4 5.477128146580000e-4
5.510089701230001e-4 5.543249619720001e-4 5.576609095789999e-4 5.610169330380000e-4
5.643931531680000e-4 5.677896915130001e-4 5.712066703470001e-4 5.746442126840000e-4
5.781024422740000e-4 5.815814836150000e-4 5.850814619510000e-4 5.886025032840001e-4
5.921447343699999e-4 5.957082827310000e-4 5.992932766540000e-4 6.028998452000000e-4
6.065281182050000e-4 6.101782262890000e-4 6.138503008539999e-4 6.175444740960000e-4
6.212608790060001e-4 6.249996493749999e-4 6.287609197990001e-4 6.325448256830001e-4
6.363515032500001e-4 6.401810895400000e-4 6.440337224179999e-4 6.479095405790001e-4
6.518086835540000e-4 6.557312917120001e-4 6.596775062679999e-4 6.636474692840000e-4
6.676413236820000e-4 6.716592132390000e-4 6.757012825999999e-4 6.797676772810001e-4
6.838585436710000e-4 6.879740290430001e-4 6.921142815540000e-4 6.962794502540001e-4
7.004696850889999e-4 7.046851369090001e-4 7.089259574690000e-4 7.131922994409999e-4
7.174843164119999e-4 7.218021628970001e-4 7.261459943369999e-4 7.305159671109999e-4
7.349122385399999e-4 7.393349668880001e-4 7.437843113740001e-4 7.482604321770001e-4
7.527634904350000e-4 7.572936482610000e-4 7.618510687400000e-4 7.664359159389999e-4
7.710483549150000e-4 7.756885517140000e-4 7.803566733849999e-4 7.850528879800001e-4
7.897773645639999e-4 7.945302732190002e-4 7.993117850490000e-4 8.041220721900000e-4
8.089613078129998e-4 8.138296661289999e-4 8.187273224019998e-4 8.236544529470001e-4
8.286112351410001e-4 8.335978474279999e-4 8.386144693289999e-4 8.436612814409999e-4
8.487384654499998e-4 8.538462041350002e-4 8.589846813769999e-4 8.641540821590000e-4
8.693545925820001e-4 8.745863998640001e-4 8.798496923500000e-4 8.851446595210000e-4
8.904714919949999e-4 8.958303815390000e-4 9.012215210730000e-4 9.066451046799999e-4
9.121013276080001e-4 9.175903862829999e-4 9.231124783100000e-4 9.286678024870000e-4
9.342565588039999e-4 9.398789484590001e-4 9.455351738570000e-4 9.512254386239999e-4
9.569499476089998e-4 9.627089068959998e-4 9.685025238070001e-4 9.743310069140001e-4
9.801945660419999e-4 9.860934122800002e-4 9.920277579879999e-4 9.979978168019999e-4
1.004003803650000e-3 1.010045934730000e-3 1.016124427590000e-3 1.022239501030000e-3
1.028391375200000e-3 1.034580271570000e-3 1.040806412950000e-3 1.047070023470000e-3
1.053371328620000e-3 1.059710555250000e-3 1.066087931580000e-3 1.072503687190000e-3
1.078958053050000e-3 1.085451261510000e-3 1.091983546340000e-3 1.098555142690000e-3
1.105166287150000e-3 1.111817217710000e-3 1.118508173810000e-3 1.125239396330000e-3
1.132011127580000e-3 1.138823611360000e-3 1.145677092920000e-3 1.152571818970000e-3
1.159508037730000e-3 1.166485998910000e-3 1.173505953700000e-3 1.180568154840000e-3
1.187672856560000e-3 1.194820314630000e-3 1.202010786360000e-3 1.209244530610000e-3
1.216521807800000e-3 1.223842879900000e-3 1.231208010470000e-3 1.238617464670000e-3
1.246071509230000e-3 1.253570412500000e-3 1.261114444440000e-3 1.268703876630000e-3
1.276338982300000e-3 1.284020036320000e-3 1.291747315190000e-3 1.299521097110000e-3
1.307341661920000e-3 1.315209291180000e-3 1.323124268110000e-3 1.331086877660000e-3
1.339097406480000e-3 1.347156142950000e-3 1.355263377190000e-3 1.363419401060000e-3
1.371624508170000e-3 1.379878993910000e-3 1.388183155450000e-3 1.396537291730000e-3
1.404941703500000e-3 1.413396693330000e-3 1.421902565580000e-3 1.430459626490000e-3
1.439068184100000e-3 1.447728548310000e-3 1.456441030910000e-3 1.465205945550000e-3
1.474023607750000e-3 1.482894334970000e-3 1.491818446540000e-3 1.500796263740000e-3
1.509828109760000e-3 1.518914309760000e-3 1.528055190840000e-3 1.537251082070000e-3
1.546502314510000e-3 1.555809221200000e-3 1.565172137180000e-3 1.574591399540000e-3
1.584067347350000e-3 1.593600321760000e-3 1.603190665950000e-3 1.612838725180000e-3
1.622544846780000e-3 1.632309380160000e-3 1.642132676860000e-3 1.652015090520000e-3
1.661956976900000e-3 1.671958693900000e-3 1.682020601600000e-3 1.692143062230000e-3
1.702326440190000e-3 1.712571102080000e-3 1.722877416720000e-3 1.733245755130000e-3
1.743676490570000e-3 1.754169998560000e-3 1.764726656850000e-3 1.775346845500000e-3
1.786030946830000e-3 1.796779345460000e-3 1.807592428340000e-3 1.818470584740000e-3
1.829414206290000e-3 1.840423686940000e-3 1.851499423040000e-3 1.862641813320000e-3
1.873851258910000e-3 1.885128163350000e-3 1.896472932600000e-3 1.907885975080000e-3
1.919367701670000e-3 1.930918525700000e-3 1.942538863000000e-3 1.954229131920000e-3
1.965989753290000e-3 1.977821150510000e-3 1.989723749500000e-3 2.001697978760000e-3
2.013744269370000e-3 2.025863054990000e-3 2.038054771890000e-3 2.050319858990000e-3
2.062658757820000e-3 2.075071912590000e-3 2.087559770180000e-3 2.100122780140000e-3
2.112761394750000e-3 2.125476069000000e-3 2.138267260610000e-3 2.151135430080000e-3
2.164081040660000e-3 2.177104558380000e-3 2.190206452110000e-3 2.203387193500000e-3
2.216647257070000e-3 2.229987120190000e-3 2.243407263080000e-3 2.256908168870000e-3
2.270490323600000e-3 2.284154216230000e-3 2.297900338650000e-3 2.311729185740000e-3
2.325641255330000e-3 2.339637048250000e-3 2.353717068360000e-3 2.367881822540000e-3
2.382131820720000e-3 2.396467575900000e-3 2.410889604180000e-3 2.425398424740000e-3
2.439994559900000e-3 2.454678535130000e-3 2.469450879060000e-3 2.484312123480000e-3
2.499262803410000e-3 2.514303457070000e-3 2.529434625930000e-3 2.544656854700000e-3
2.559970691400000e-3 2.575376687320000e-3 2.590875397080000e-3 2.606467378630000e-3
2.622153193280000e-3 2.637933405740000e-3 2.653808584090000e-3 2.669779299820000e-3
2.685846127910000e-3 2.702009646740000e-3 2.718270438210000e-3 2.734629087720000e-3
2.751086184160000e-3 2.767642320000000e-3 2.784298091270000e-3 2.801054097570000e-3
2.817910942120000e-3 2.834869231760000e-3 2.851929577010000e-3 2.869092592030000e-3
2.886358894690000e-3 2.903729106580000e-3 2.921203853040000e-3 2.938783763150000e-3
2.956469469790000e-3 2.974261609650000e-3 2.992160823250000e-3 3.010167754960000e-3
3.028283053040000e-3 3.046507369640000e-3 3.064841360830000e-3 3.083285686640000e-3
3.101841011060000e-3 3.120508002100000e-3 3.139287331770000e-3 3.158179676110000e-3
3.177185715270000e-3 3.196306133450000e-3 3.215541619000000e-3 3.234892864400000e-3
3.254360566290000e-3 3.273945425510000e-3 3.293648147120000e-3 3.313469440420000e-3
3.333410018980000e-3 3.353470600650000e-3 3.373651907630000e-3 3.393954666450000e-3
3.414379608000000e-3 3.434927467580000e-3 3.455598984920000e-3 3.476394904200000e-3
3.497315974070000e-3 3.518362947700000e-3 3.539536582770000e-3 3.560837641540000e-3
3.582266890850000e-3 3.603825102150000e-3 3.625513051550000e-3 3.647331519810000e-3
3.669281292400000e-3 3.691363159510000e-3 3.713577916089999e-3 3.735926361880000e-3
3.758409301420000e-3 3.781027544100000e-3 3.803781904180000e-3 3.826673200820000e-3
3.849702258110000e-3 3.872869905100000e-3 3.896176975820000e-3 3.919624309330000e-3
3.943212749750000e-3 3.966943146239999e-3 3.990816353120000e-3 4.014833229820000e-3
4.038994640949999e-3 4.063301456320001e-3 4.087754550980000e-3 4.112354805250000e-3
4.137103104740000e-3 4.162000340380001e-3 4.187047408480000e-3 4.212245210750000e-3
4.237594654300000e-3 4.263096651710000e-3 4.288752121060001e-3 4.314561985950000e-3
4.340527175540000e-3 4.366648624580000e-3 4.392927273430000e-3 4.419364068150000e-3
4.445959960450000e-3 4.472715907780000e-3 4.499632873380000e-3 4.526711826240000e-3
4.553953741220001e-3 4.581359599020001e-3 4.608930386260001e-3 4.636667095500000e-3
4.664570725250000e-3 4.692642280050000e-3 4.720882770480000e-3 4.749293213200001e-3
4.777874630990000e-3 4.806628052780000e-3 4.835554513699999e-3 4.864655055100000e-3
4.893930724620000e-3 4.923382576160000e-3 4.953011670010000e-3 4.982819072820000e-3
5.012805857650000e-3 5.042973104040000e-3 5.073321898000001e-3 5.103853332090001e-3
5.134568505460000e-3 5.165468523850000e-3 5.196554499659999e-3 5.227827551990000e-3
5.259288806690000e-3 5.290939396340000e-3 5.322780460390000e-3 5.354813145110001e-3
5.387038603680000e-3 5.419457996219999e-3 5.452072489840000e-3 5.484883258649999e-3
5.517891483849999e-3 5.551098353740000e-3 5.584505063780000e-3 5.618112816600000e-3
5.651922822080000e-3 5.685936297400001e-3 5.720154467040000e-3 5.754578562860000e-3
5.789209824119999e-3 5.824049497570001e-3 5.859098837430000e-3 5.894359105470000e-3
5.929831571089999e-3 5.965517511280001e-3 6.001418210739999e-3 6.037534961910000e-3
6.073869064990001e-3 6.110421828010000e-3 6.147194566870001e-3 6.184188605410000e-3
6.221405275400000e-3 6.258845916649999e-3 6.296511877039999e-3 6.334404512530001e-3
6.372525187270001e-3 6.410875273600000e-3 6.449456152130000e-3 6.488269211790000e-3
6.527315849830001e-3 6.566597471950000e-3 6.606115492289999e-3 6.645871333500000e-3
6.685866426800001e-3 6.726102212010000e-3 6.766580137620000e-3 6.807301660850000e-3
6.848268247680000e-3 6.889481372899999e-3 6.930942520200000e-3 6.972653182169999e-3
7.014614860410000e-3 7.056829065549999e-3 7.099297317290000e-3 7.142021144510000e-3
7.185002085250001e-3 7.228241686850001e-3 7.271741505930001e-3 7.315503108490001e-3
7.359528069950000e-3 7.403817975210001e-3 7.448374418729999e-3 7.493199004520000e-3
7.538293346289999e-3 7.583659067440001e-3 7.629297801129999e-3 7.675211190360000e-3
7.721400888030000e-3 7.767868556960000e-3 7.814615869999999e-3 7.861644510050001e-3
7.908956170160000e-3 7.956552553540000e-3 8.004435373670001e-3 8.052606354340000e-3
8.101067229709999e-3 8.149819744379998e-3 8.198865653430001e-3 8.248206722539999e-3
8.297844727979999e-3 8.347781456720000e-3 8.398018706499998e-3 8.448558285859999e-3
8.499402014230000e-3 8.550551721990001e-3 8.602009250530001e-3 8.653776452340001e-3
8.705855191029999e-3 8.758247341450001e-3 8.810954789729999e-3 8.863979433320001e-3
8.917323181130000e-3 8.970987953540000e-3 9.024975682490000e-3 9.079288311530000e-3
9.133927795940000e-3 9.188896102730000e-3 9.244195210770002e-3 9.299827110839999e-3
9.355793805690000e-3 9.412097310129999e-3 9.468739651080000e-3 9.525722867690000e-3
9.583049011349999e-3 9.640720145810000e-3 9.698738347230000e-3 9.757105704279999e-3
9.815824318200001e-3 9.874896302840000e-3 9.934323784820000e-3 9.994108903530002e-3
1.005425381120000e-2 1.011476067320000e-2 1.017563166760000e-2 1.023686898580000e-2
1.029847483250000e-2 1.036045142530000e-2 1.042280099550000e-2 1.048552578770000e-2
1.054862805990000e-2 1.061211008390000e-2 1.067597414500000e-2 1.074022254230000e-2
1.080485758880000e-2 1.086988161140000e-2 1.093529695080000e-2 1.100110596210000e-2
1.106731101440000e-2 1.113391449110000e-2 1.120091879000000e-2 1.126832632310000e-2
1.133613951720000e-2 1.140436081350000e-2 1.147299266800000e-2 1.154203755160000e-2
1.161149794970000e-2 1.168137636300000e-2 1.175167530710000e-2 1.182239731280000e-2
1.189354492610000e-2 1.196512070820000e-2 1.203712723610000e-2 1.210956710170000e-2
1.218244291320000e-2 1.225575729380000e-2 1.232951288310000e-2 1.240371233620000e-2
1.247835832420000e-2 1.255345353450000e-2 1.262900067050000e-2 1.270500245180000e-2
1.278146161470000e-2 1.285838091150000e-2 1.293576311140000e-2 1.301361100020000e-2
1.309192738040000e-2 1.317071507140000e-2 1.324997690950000e-2 1.332971574830000e-2
1.340993445830000e-2 1.349063592730000e-2 1.357182306070000e-2 1.365349878120000e-2
1.373566602910000e-2 1.381832776250000e-2 1.390148695720000e-2 1.398514660690000e-2
1.406930972340000e-2 1.415397933660000e-2 1.423915849460000e-2 1.432485026380000e-2
1.441105772910000e-2 1.449778399410000e-2 1.458503218090000e-2 1.467280543040000e-2
1.476110690250000e-2 1.484993977600000e-2 1.493930724900000e-2 1.502921253860000e-2
1.511965888160000e-2 1.521064953380000e-2 1.530218777110000e-2 1.539427688890000e-2
1.548692020220000e-2 1.558012104630000e-2 1.567388277650000e-2 1.576820876820000e-2
1.586310241710000e-2 1.595856713930000e-2 1.605460637170000e-2 1.615122357170000e-2
1.624842221750000e-2 1.634620580820000e-2 1.644457786410000e-2 1.654354192660000e-2
1.664310155840000e-2 1.674326034360000e-2 1.684402188800000e-2 1.694538981900000e-2
1.704736778590000e-2 1.714995945990000e-2 1.725316853420000e-2 1.735699872450000e-2
1.746145376860000e-2 1.756653742700000e-2 1.767225348260000e-2 1.777860574120000e-2
1.788559803150000e-2 1.799323420530000e-2 1.810151813750000e-2 1.821045372630000e-2
1.832004489340000e-2 1.843029558400000e-2 1.854120976740000e-2 1.865279143620000e-2
1.876504460760000e-2 1.887797332260000e-2 1.899158164670000e-2 1.910587366980000e-2
1.922085350630000e-2 1.933652529570000e-2 1.945289320210000e-2 1.956996141480000e-2
1.968773414810000e-2 1.980621564210000e-2 1.992541016190000e-2 2.004532199860000e-2
2.016595546910000e-2 2.028731491620000e-2 2.040940470880000e-2 2.053222924220000e-2
2.065579293810000e-2 2.078010024470000e-2 2.090515563720000e-2 2.103096361750000e-2
2.115752871480000e-2 2.128485548540000e-2 2.141294851310000e-2 2.154181240930000e-2
2.167145181310000e-2 2.180187139140000e-2 2.193307583950000e-2 2.206506988070000e-2
2.219785826680000e-2 2.233144577810000e-2 2.246583722400000e-2 2.260103744240000e-2
2.273705130060000e-2 2.287388369500000e-2 2.301153955180000e-2 2.315002382650000e-2
2.328934150450000e-2 2.342949760140000e-2 2.357049716270000e-2 2.371234526440000e-2
2.385504701310000e-2 2.399860754610000e-2 2.414303203160000e-2 2.428832566880000e-2
2.443449368840000e-2 2.458154135240000e-2 2.472947395450000e-2 2.487829682040000e-2
2.502801530760000e-2 2.517863480610000e-2 2.533016073810000e-2 2.548259855870000e-2
2.563595375560000e-2 2.579023184960000e-2 2.594543839470000e-2 2.610157897840000e-2
2.625865922170000e-2 2.641668477970000e-2 2.657566134110000e-2 2.673559462920000e-2
2.689649040160000e-2 2.705835445060000e-2 2.722119260320000e-2 2.738501072170000e-2
2.754981470360000e-2 2.771561048180000e-2 2.788240402490000e-2 2.805020133760000e-2
2.821900846060000e-2 2.838883147090000e-2 2.855967648220000e-2 2.873154964500000e-2
2.890445714660000e-2 2.907840521190000e-2 2.925340010280000e-2 2.942944811940000e-2
2.960655559920000e-2 2.978472891820000e-2 2.996397449070000e-2 3.014429876950000e-2
3.032570824630000e-2 3.050820945190000e-2 3.069180895640000e-2 3.087651336920000e-2
3.106232933990000e-2 3.124926355780000e-2 3.143732275250000e-2 3.162651369430000e-2
3.181684319400000e-2 3.200831810350000e-2 3.220094531580000e-2 3.239473176570000e-2
3.258968442940000e-2 3.278581032530000e-2 3.298311651390000e-2 3.318161009830000e-2
3.338129822420000e-2 3.358218808040000e-2 3.378428689910000e-2 3.398760195570000e-2
3.419214056970000e-2 3.439791010440000e-2 3.460491796760000e-2 3.481317161150000e-2
3.502267853350000e-2 3.523344627560000e-2 3.544548242560000e-2 3.565879461680000e-2
3.587339052840000e-2 3.608927788600000e-2 3.630646446150000e-2 3.652495807360000e-2
3.674476658820000e-2 3.696589791830001e-2 3.718836002470000e-2 3.741216091620000e-2
3.763730864940000e-2 3.786381132979999e-2 3.809167711160000e-2 3.832091419780000e-2
3.855153084110000e-2 3.878353534360000e-2 3.901693605760000e-2 3.925174138550000e-2
3.948795978040000e-2 3.972559974599999e-2 3.996466983760000e-2 4.020517866150001e-2
4.044713487630000e-2 4.069054719220000e-2 4.093542437230000e-2 4.118177523210001e-2
4.142960864020000e-2 4.167893351870000e-2 4.192975884330000e-2 4.218209364370001e-2
4.243594700410000e-2 4.269132806320000e-2 4.294824601469999e-2 4.320671010760000e-2
4.346672964690001e-2 4.372831399300000e-2 4.399147256319999e-2 4.425621483120000e-2
4.452255032760000e-2 4.479048864070000e-2 4.506003941630000e-2 4.533121235809999e-2
4.560401722840000e-2 4.587846384830000e-2 4.615456209780000e-2 4.643232191660001e-2
4.671175330400001e-2 4.699286631950000e-2 4.727567108330000e-2 4.756017777640000e-2
4.784639664100000e-2 4.813433798100000e-2 4.842401216240000e-2 4.871542961350000e-2
4.900860082530000e-2 4.930353635199999e-2 4.960024681140000e-2 4.989874288500000e-2
5.019903531870000e-2 5.050113492310000e-2 5.080505257390000e-2 5.111079921200000e-2
5.141838584439999e-2 5.172782354420001e-2 5.203912345130000e-2 5.235229677250000e-2
5.266735478199999e-2 5.298430882189999e-2 5.330317030270000e-2 5.362395070340000e-2
5.394666157210000e-2 5.427131452640000e-2 5.459792125389999e-2 5.492649351250000e-2
5.525704313080000e-2 5.558958200860000e-2 5.592412211740000e-2 5.626067550060000e-2
5.659925427419999e-2 5.693987062700000e-2 5.728253682140000e-2 5.762726519320001e-2
5.797406815280000e-2 5.832295818520000e-2 5.867394785030000e-2 5.902704978390000e-2
5.938227669770000e-2 5.973964137980000e-2 6.009915669550000e-2 6.046083558730000e-2
6.082469107570000e-2 6.119073625960000e-2 6.155898431660000e-2 6.192944850370000e-2
6.230214215760000e-2 6.267707869530000e-2 6.305427161470000e-2 6.343373449460000e-2
6.381548099590000e-2 6.419952486130000e-2 6.458587991660001e-2 6.497456007049999e-2
6.536557931560000e-2 6.575895172860000e-2 6.615469147100001e-2 6.655281278940000e-2
6.695333001629999e-2 6.735625757020001e-2 6.776160995680001e-2 6.816940176859999e-2
6.857964768620000e-2 6.899236247850000e-2 6.940756100340000e-2 6.982525820790000e-2
7.024546912930001e-2 7.066820889519999e-2 7.109349272420000e-2 7.152133592659999e-2
7.195175390480001e-2 7.238476215400000e-2 7.282037626240000e-2 7.325861191220000e-2
7.369948488000000e-2 7.414301103720000e-2 7.458920635070000e-2 7.503808688379999e-2
7.548966879609999e-2 7.594396834459999e-2 7.640100188420000e-2 7.686078586809999e-2
7.732333684860000e-2 7.778867147760000e-2 7.825680650710000e-2 7.872775879020000e-2
7.920154528099999e-2 7.967818303609999e-2 8.015768921430000e-2 8.064008107799999e-2
8.112537599330000e-2 8.161359143100000e-2 8.210474496670001e-2 8.259885428210000e-2
8.309593716520000e-2 8.359601151100000e-2 8.409909532229999e-2 8.460520671000001e-2
8.511436389440000e-2 8.562658520499999e-2 8.614188908190000e-2 8.666029407620000e-2
8.718181885040000e-2 8.770648217950001e-2 8.823430295140000e-2 8.876530016780000e-2
8.929949294460000e-2 8.983690051270001e-2 9.037754221900000e-2 9.092143752650001e-2
9.146860601570001e-2 9.201906738449999e-2 9.257284144970001e-2 9.312994814710001e-2
9.369040753280000e-2 9.425423978330000e-2 9.482146519650001e-2 9.539210419280000e-2
9.596617731509999e-2 9.654370523010002e-2 9.712470872900001e-2 9.770920872790001e-2
9.829722626879999e-2 9.888878252049999e-2 9.948389877910000e-2 1.000825964690000e-1
1.006848971430000e-1 1.012908224840000e-1 1.019003943050000e-1 1.025136345520000e-1
1.031305653010000e-1 1.037512087610000e-1 1.043755872760000e-1 1.050037233240000e-1
1.056356395160000e-1 1.062713586040000e-1 1.069109034710000e-1 1.075542971430000e-1
1.082015627810000e-1 1.088527236870000e-1 1.095078033030000e-1 1.101668252110000e-1
1.108298131370000e-1 1.114967909480000e-1 1.121677826560000e-1 1.128428124160000e-1
1.135219045300000e-1 1.142050834440000e-1 1.148923737540000e-1 1.155838002020000e-1
1.162793876790000e-1 1.169791612260000e-1 1.176831460360000e-1 1.183913674520000e-1
1.191038509690000e-1 1.198206222390000e-1 1.205417070630000e-1 1.212671314020000e-1
1.219969213710000e-1 1.227311032430000e-1 1.234697034470000e-1 1.242127485740000e-1
1.249602653730000e-1 1.257122807560000e-1 1.264688217940000e-1 1.272299157230000e-1
1.279955899430000e-1 1.287658720180000e-1 1.295407896780000e-1 1.303203708210000e-1
1.311046435110000e-1 1.318936359830000e-1 1.326873766390000e-1 1.334858940560000e-1
1.342892169790000e-1 1.350973743280000e-1 1.359103951980000e-1 1.367283088560000e-1
1.375511447490000e-1 1.383789324970000e-1 1.392117019020000e-1 1.400494829430000e-1
1.408923057810000e-1 1.417402007570000e-1 1.425931983950000e-1 1.434513294040000e-1
1.443146246770000e-1 1.451831152910000e-1 1.460568325130000e-1 1.469358077970000e-1
1.478200727860000e-1 1.487096593140000e-1 1.496045994050000e-1 1.505049252780000e-1
1.514106693450000e-1 1.523218642120000e-1 1.532385426830000e-1 1.541607377570000e-1
1.550884826350000e-1 1.560218107150000e-1 1.569607555970000e-1 1.579053510840000e-1
1.588556311800000e-1 1.598116300950000e-1 1.607733822470000e-1 1.617409222580000e-1
1.627142849600000e-1 1.636935053930000e-1 1.646786188100000e-1 1.656696606760000e-1
1.666666666670000e-1 1.676696726760000e-1 1.686787148110000e-1 1.696938293980000e-1
1.707150529820000e-1 1.717424223260000e-1 1.727759744150000e-1 1.738157464580000e-1
1.748617758870000e-1 1.759141003590000e-1 1.769727577580000e-1 1.780377861940000e-1
1.791092240110000e-1 1.801871097780000e-1 1.812714823010000e-1 1.823623806180000e-1
1.834598439990000e-1 1.845639119550000e-1 1.856746242310000e-1 1.867920208140000e-1
1.879161419300000e-1 1.890470280470000e-1 1.901847198780000e-1 1.913292583790000e-1
1.924806847540000e-1 1.936390404550000e-1 1.948043671820000e-1 1.959767068870000e-1
1.971561017750000e-1 1.983425943030000e-1 1.995362271870000e-1 2.007370433960000e-1
2.019450861610000e-1 2.031603989700000e-1 2.043830255760000e-1 2.056130099930000e-1
2.068503965000000e-1 2.080952296440000e-1 2.093475542390000e-1 2.106074153680000e-1
2.118748583870000e-1 2.131499289240000e-1 2.144326728810000e-1 2.157231364370000e-1
2.170213660500000e-1 2.183274084560000e-1 2.196413106710000e-1 2.209631199980000e-1
2.222928840210000e-1 2.236306506110000e-1 2.249764679290000e-1 2.263303844250000e-1
2.276924488380000e-1 2.290627102050000e-1 2.304412178530000e-1 2.318280214110000e-1
2.332231708020000e-1 2.346267162520000e-1 2.360387082900000e-1 2.374591977470000e-1
2.388882357600000e-1 2.403258737760000e-1 2.417721635490000e-1 2.432271571460000e-1
2.446909069470000e-1 2.461634656470000e-1 2.476448862590000e-1 2.491352221130000e-1
2.506345268620000e-1 2.521428544810000e-1 2.536602592700000e-1 2.551867958560000e-1
2.567225191940000e-1 2.582674845700000e-1 2.598217476040000e-1 2.613853642480000e-1
2.629583907940000e-1 2.645408838710000e-1 2.661329004480000e-1 2.677344978380000e-1
2.693457336990000e-1 2.709666660350000e-1 2.725973532010000e-1 2.742378539010000e-1
2.758882271930000e-1 2.775485324910000e-1 2.792188295660000e-1 2.808991785500000e-1
2.825896399340000e-1 2.842902745750000e-1 2.860011436970000e-1 2.877223088920000e-1
2.894538321200000e-1 2.911957757180000e-1 2.929482023950000e-1 2.947111752390000e-1
2.964847577170000e-1 2.982690136790000e-1 3.000640073570000e-1 3.018698033710000e-1
3.036864667320000e-1 3.055140628380000e-1 3.073526574830000e-1 3.092023168570000e-1
3.110631075480000e-1 3.129350965440000e-1 3.148183512380000e-1 3.167129394260000e-1
3.186189293140000e-1 3.205363895180000e-1 3.224653890670000e-1 3.244059974050000e-1
3.263582843930000e-1 3.283223203150000e-1 3.302981758760000e-1 3.322859222070000e-1
3.342856308670000e-1 3.362973738460000e-1 3.383212235670000e-1 3.403572528880000e-1
3.424055351070000e-1 3.444661439630000e-1 3.465391536360000e-1 3.486246387570000e-1
3.507226744030000e-1 3.528333361020000e-1 3.549566998400000e-1 3.570928420570000e-1
3.592418396550000e-1 3.614037699980000e-1 3.635787109160000e-1 3.657667407070000e-1
3.679679381400000e-1 3.701823824590000e-1 3.724101533830000e-1 3.746513311130000e-1
3.769059963310000e-1 3.791742302060000e-1 3.814561143940000e-1 3.837517310440000e-1
3.860611627970000e-1 3.883844927940000e-1 3.907218046740000e-1 3.930731825820000e-1
3.954387111660000e-1 3.978184755870000e-1 4.002125615160000e-1 4.026210551410000e-1
4.050440431670000e-1 4.074816128220000e-1 4.099338518590000e-1 4.124008485600000e-1
4.148826917350000e-1 4.173794707320000e-1 4.198912754350000e-1 4.224181962699999e-1
4.249603242050000e-1 4.275177507570000e-1 4.300905679950001e-1 4.326788685400000e-1
4.352827455710000e-1 4.379022928270000e-1 4.405376046130000e-1 4.431887758010000e-1
4.458559018330000e-1 4.485390787250000e-1 4.512384030720000e-1 4.539539720510001e-1
4.566858834220000e-1 4.594342355330000e-1 4.621991273270000e-1 4.649806583400000e-1
4.677789287060000e-1 4.705940391640000e-1 4.734260910590001e-1 4.762751863440000e-1
4.791414275870000e-1 4.820249179730000e-1 4.849257613080001e-1 4.878440620240000e-1
4.907799251780000e-1 4.937334564620000e-1 4.967047622040000e-1 4.996939493710000e-1
5.027011255740001e-1 5.057263990730000e-1 5.087698787760000e-1 5.118316742490000e-1
5.149118957190000e-1 5.180106540720000e-1 5.211280608640000e-1 5.242642283230000e-1
5.274192693510001e-1 5.305932975299999e-1 5.337864271240001e-1 5.369987730880000e-1
5.402304510660000e-1 5.434815773980000e-1 5.467522691250000e-1 5.500426439929999e-1
5.533528204560000e-1 5.566829176800000e-1 5.600330555489999e-1 5.634033546690000e-1
5.667939363710000e-1 5.702049227150000e-1 5.736364364980000e-1 5.770886012550001e-1
5.805615412640000e-1 5.840553815500000e-1 5.875702478940000e-1 5.911062668300000e-1
5.946635656560000e-1 5.982422724339999e-1 6.018425159990000e-1 6.054644259590000e-1
6.091081327039999e-1 6.127737674070000e-1 6.164614620320000e-1 6.201713493370001e-1
6.239035628770000e-1 6.276582370120000e-1 6.314355069120000e-1 6.352355085590000e-1
6.390583787520000e-1 6.429042551160000e-1 6.467732761030000e-1 6.506655809970000e-1
6.545813099230000e-1 6.585206038460000e-1 6.624836045820000e-1 6.664704548000000e-1
6.704812980260000e-1 6.745162786509999e-1 6.785755419350000e-1 6.826592340120000e-1
6.867675018950000e-1 6.909004934820000e-1 6.950583575610000e-1 6.992412438170001e-1
7.034493028330000e-1 7.076826860990000e-1 7.119415460190000e-1 7.162260359119999e-1
7.205363100190000e-1 7.248725235100000e-1 7.292348324920001e-1 7.336233940050000e-1
7.380383660410001e-1 7.424799075370000e-1 7.469481783900001e-1 7.514433394580000e-1
7.559655525670000e-1 7.605149805180000e-1 7.650917870910000e-1 7.696961370500000e-1
7.743281961530000e-1 7.789881311559999e-1 7.836761098150000e-1 7.883923008980000e-1
7.931368741900000e-1 7.979100004939999e-1 8.027118516450001e-1 8.075426005090000e-1
8.124024209940000e-1 8.172914880540000e-1 8.222099776960000e-1 8.271580669860001e-1
8.321359340559999e-1 8.371437581089999e-1 8.421817194270000e-1 8.472499993790001e-1
8.523487804220000e-1 8.574782461130001e-1 8.626385811140000e-1 8.678299711970000e-1
8.730526032520000e-1 8.783066652960001e-1 8.835923464740000e-1 8.889098370719999e-1
8.942593285200001e-1 8.996410134010000e-1 9.050550854550000e-1 9.105017395910000e-1
9.159811718869999e-1 9.214935796040001e-1 9.270391611899999e-1 9.326181162850000e-1
9.382306457340000e-1 9.438769515870000e-1 9.495572371120000e-1 9.552717068000000e-1
9.610205663730000e-1 9.668040227900001e-1 9.726222842569999e-1 9.784755602300001e-1
9.843640614300000e-1 9.902879998420000e-1 9.962475887289999e-1 1.002243042640000e0
1.008274577400000e0 1.014342410160000e0 1.020446759360000e0 1.026587844750000e0
1.032765887410000e0 1.038981109750000e0 1.045233735530000e0 1.051523989840000e0
1.057852099120000e0 1.064218291190000e0 1.070622795240000e0 1.077065841820000e0
1.083547662890000e0 1.090068491790000e0 1.096628563280000e0 1.103228113510000e0
1.109867380070000e0 1.116546601980000e0 1.123266019690000e0 1.130025875090000e0
1.136826411550000e0 1.143667873880000e0 1.150550508380000e0 1.157474562820000e0
1.164440286470000e0 1.171447930100000e0 1.178497745980000e0 1.185589987900000e0
1.192724911190000e0 1.199902772710000e0 1.207123830860000e0 1.214388345600000e0
1.221696578440000e0 1.229048792500000e0 1.236445252450000e0 1.243886224550000e0
1.251371976700000e0 1.258902778370000e0 1.266478900680000e0 1.274100616370000e0
1.281768199810000e0 1.289481927050000e0 1.297242075780000e0 1.305048925360000e0
1.312902756850000e0 1.320803852970000e0 1.328752498180000e0 1.336748978620000e0
1.344793582170000e0 1.352886598430000e0 1.361028318760000e0 1.369219036250000e0
1.377459045780000e0 1.385748643980000e0 1.394088129280000e0 1.402477801910000e0
1.410917963880000e0 1.419408919060000e0 1.427950973110000e0 1.436544433550000e0
1.445189609740000e0 1.453886812920000e0 1.462636356180000e0 1.471438554500000e0