<UPF version="2.0.1">
<PP_INFO>
Generated by new atomic code, or converted to UPF format
Author:
Generation date:
Pseudopotential type: US
Element: Pt
Functional:  SLA  PZ   NOGX NOGC
Suggested minimum cutoff for wavefunctions:   0. Ry
Suggested minimum cutoff for charge density:   0. Ry
The Pseudo was generated with a Fully-Relativistic Calculation
L component and cutoff radius for Local Potential:  0   0.0000
Pseudopotential contains additional information for spin-orbit calculations.
Valence configuration:
nl pn  l   occ       Rcut    Rcut US       E pseu
5D  3  2  4.00      2.100      2.400     0.000000
5D  3  2  4.00      2.100      2.400     0.000000
6S  1  0  2.00      2.100      2.400     0.000000
Generation configuration: not available.
</PP_INFO>
<!--
END OF HUMAN READABLE SECTION
-->
<PP_HEADER 
functional=" SLA  PZ   NOGX NOGC"
has_wfc="false"
comment=""
author=""
core_correction="true"
paw_as_gipaw="false"
number_of_wfc="5"
is_ultrasoft="true"
z_valence="1.000000000000e1"
has_so="true"
pseudo_type="US"
l_max="2"
l_max_rho="0"
is_paw="false"
wfc_cutoff="0.000000000000e0"
l_local="0"
relativistic="full"
has_gipaw="false"
date=""
mesh_size="1277"
generated="Generated by new atomic code, or converted to UPF format"
number_of_proj="6"
element="Pt"
is_coulomb="false"
total_psenergy="-5.316491049328e1"
rho_cutoff="0.000000000000e0"
/>
<PP_MESH dx="1.250000000000e-2" mesh="1277" xmin="-6.999999999999e0" rmax="9.881912642450e1" zmesh="7.800000000000e1">
<PP_R>
1.169079443020000e-5 1.183784652140000e-5 1.198674830020000e-5 1.213752303280000e-5
1.229019427810000e-5 1.244478589130000e-5 1.260132202750000e-5 1.275982714600000e-5
1.292032601340000e-5 1.308284370810000e-5 1.324740562370000e-5 1.341403747340000e-5
1.358276529370000e-5 1.375361544870000e-5 1.392661463420000e-5 1.410178988150000e-5
1.427916856210000e-5 1.445877839190000e-5 1.464064743530000e-5 1.482480410950000e-5
1.501127718960000e-5 1.520009581230000e-5 1.539128948090000e-5 1.558488806980000e-5
1.578092182910000e-5 1.597942138960000e-5 1.618041776720000e-5 1.638394236800000e-5
1.659002699320000e-5 1.679870384370000e-5 1.701000552600000e-5 1.722396505620000e-5
1.744061586600000e-5 1.765999180750000e-5 1.788212715870000e-5 1.810705662860000e-5
1.833481536290000e-5 1.856543894950000e-5 1.879896342360000e-5 1.903542527410000e-5
1.927486144840000e-5 1.951730935910001e-5 1.976280688910000e-5 2.001139239790000e-5
2.026310472740000e-5 2.051798320830000e-5 2.077606766580000e-5 2.103739842610000e-5
2.130201632270000e-5 2.156996270280000e-5 2.184127943340000e-5 2.211600890830001e-5
2.239419405460000e-5 2.267587833930000e-5 2.296110577620000e-5 2.324992093250000e-5
2.354236893630000e-5 2.383849548310000e-5 2.413834684329999e-5 2.444196986940001e-5
2.474941200290000e-5 2.506072128250000e-5 2.537594635070000e-5 2.569513646220000e-5
2.601834149100000e-5 2.634561193860000e-5 2.667699894170000e-5 2.701255428009999e-5
2.735233038510000e-5 2.769638034740000e-5 2.804475792540000e-5 2.839751755400000e-5
2.875471435240000e-5 2.911640413340000e-5 2.948264341189999e-5 2.985348941329999e-5
3.022900008320000e-5 3.060923409590000e-5 3.099425086360000e-5 3.138411054620000e-5
3.177887405980000e-5 3.217860308720000e-5 3.258336008680001e-5 3.299320830270000e-5
3.340821177450000e-5 3.382843534730000e-5 3.425394468199999e-5 3.468480626530001e-5
3.512108742010001e-5 3.556285631630001e-5 3.601018198110000e-5 3.646313431010000e-5
3.692178407809999e-5 3.738620294990000e-5 3.785646349200000e-5 3.833263918349999e-5
3.881480442790000e-5 3.930303456450000e-5 3.979740588010001e-5 4.029799562140001e-5
4.080488200650001e-5 4.131814423749999e-5 4.183786251250000e-5 4.236411803870000e-5
4.289699304450000e-5 4.343657079280000e-5 4.398293559360001e-5 4.453617281750000e-5
4.509636890910000e-5 4.566361140010001e-5 4.623798892330000e-5 4.681959122629999e-5
4.740850918570001e-5 4.800483482110001e-5 4.860866130960000e-5 4.922008300030000e-5
4.983919542920000e-5 5.046609533370001e-5 5.110088066829999e-5 5.174365061950001e-5
5.239450562130000e-5 5.305354737129999e-5 5.372087884600001e-5 5.439660431719999e-5
5.508082936860000e-5 5.577366091169999e-5 5.647520720269999e-5 5.718557785970000e-5
5.790488387960000e-5 5.863323765550001e-5 5.937075299400001e-5 6.011754513350000e-5
6.087373076170000e-5 6.163942803419999e-5 6.241475659270001e-5 6.319983758390001e-5
6.399479367830001e-5 6.479974908949999e-5 6.561482959319999e-5 6.644016254760000e-5
6.727587691260000e-5 6.812210327020001e-5 6.897897384500000e-5 6.984662252480000e-5
7.072518488149999e-5 7.161479819230000e-5 7.251560146089999e-5 7.342773543990000e-5
7.435134265180000e-5 7.528656741230001e-5 7.623355585219999e-5 7.719245594029999e-5
7.816341750659999e-5 7.914659226600000e-5 8.014213384140001e-5 8.115019778830000e-5
8.217094161870000e-5 8.320452482590001e-5 8.425110890940001e-5 8.531085740000000e-5
8.638393588569999e-5 8.747051203709999e-5 8.857075563399999e-5 8.968483859170000e-5
9.081293498780001e-5 9.195522108990001e-5 9.311187538220000e-5 9.428307859460000e-5
9.546901372980001e-5 9.666986609260000e-5 9.788582331870000e-5 9.911707540380000e-5
1.003638147340000e-4 1.016262361140000e-4 1.029045368000000e-4 1.041989165290000e-4
1.055095775520000e-4 1.068367246600000e-4 1.081805652240000e-4 1.095413092210000e-4
1.109191692710000e-4 1.123143606660000e-4 1.137271014090000e-4 1.151576122430000e-4
1.166061166880000e-4 1.180728410770000e-4 1.195580145860000e-4 1.210618692790000e-4
1.225846401350000e-4 1.241265650910000e-4 1.256878850750000e-4 1.272688440460000e-4
1.288696890340000e-4 1.304906701720000e-4 1.321320407440000e-4 1.337940572150000e-4
1.354769792800000e-4 1.371810698990000e-4 1.389065953390000e-4 1.406538252170000e-4
1.424230325420000e-4 1.442144937550000e-4 1.460284887760000e-4 1.478653010450000e-4
1.497252175690000e-4 1.516085289630000e-4 1.535155294970000e-4 1.554465171460000e-4
1.574017936290000e-4 1.593816644630000e-4 1.613864390060000e-4 1.634164305080000e-4
1.654719561600000e-4 1.675533371420000e-4 1.696608986740000e-4 1.717949700660000e-4
1.739558847720000e-4 1.761439804390000e-4 1.783595989610000e-4 1.806030865330000e-4
1.828747937050000e-4 1.851750754360000e-4 1.875042911490000e-4 1.898628047890000e-4
1.922509848780000e-4 1.946692045750000e-4 1.971178417310000e-4 1.995972789510000e-4
2.021079036520000e-4 2.046501081240000e-4 2.072242895920000e-4 2.098308502770000e-4
2.124701974580000e-4 2.151427435410000e-4 2.178489061150000e-4 2.205891080240000e-4
2.233637774290000e-4 2.261733478800000e-4 2.290182583760000e-4 2.318989534410000e-4
2.348158831890000e-4 2.377695033970000e-4 2.407602755730001e-4 2.437886670320000e-4
2.468551509660000e-4 2.499602065200000e-4 2.531043188650000e-4 2.562879792750000e-4
2.595116852030000e-4 2.627759403590000e-4 2.660812547910000e-4 2.694281449600000e-4
2.728171338249999e-4 2.762487509230000e-4 2.797235324490000e-4 2.832420213470001e-4
2.868047673870000e-4 2.904123272550000e-4 2.940652646400000e-4 2.977641503210000e-4
3.015095622570000e-4 3.053020856740000e-4 3.091423131640000e-4 3.130308447700000e-4
3.169682880810000e-4 3.209552583330000e-4 3.249923784960000e-4 3.290802793800001e-4
3.332195997279999e-4 3.374109863150000e-4 3.416550940559999e-4 3.459525861000000e-4
3.503041339400000e-4 3.547104175130000e-4 3.591721253110000e-4 3.636899544840000e-4
3.682646109520000e-4 3.728968095149999e-4 3.775872739630000e-4 3.823367371910000e-4
3.871459413120000e-4 3.920156377740000e-4 3.969465874770000e-4 4.019395608910000e-4
4.069953381800000e-4 4.121147093190000e-4 4.172984742190000e-4 4.225474428550000e-4
4.278624353890001e-4 4.332442822980001e-4 4.386938245090001e-4 4.442119135210000e-4
4.497994115489999e-4 4.554571916500000e-4 4.611861378640000e-4 4.669871453510000e-4
4.728611205290000e-4 4.788089812190000e-4 4.848316567860000e-4 4.909300882860000e-4
4.971052286119999e-4 5.033580426409999e-4 5.096895073869999e-4 5.161006121570000e-4
5.225923586970000e-4 5.291657613559999e-4 5.358218472430000e-4 5.425616563830000e-4
5.493862418850000e-4 5.562966701059999e-4 5.632940208130000e-4 5.703793873570000e-4
5.775538768400001e-4 5.848186102920000e-4 5.921747228420000e-4 5.996233638969999e-4
6.071656973219999e-4 6.148029016230000e-4 6.225361701280001e-4 6.303667111770000e-4
6.382957483060001e-4 6.463245204449999e-4 6.544542821050001e-4 6.626863035780000e-4
6.710218711340000e-4 6.794622872230000e-4 6.880088706760001e-4 6.966629569150000e-4
7.054258981589999e-4 7.142990636350000e-4 7.232838397919999e-4 7.323816305210000e-4
7.415938573699999e-4 7.509219597670000e-4 7.603673952490000e-4 7.699316396830000e-4
7.796161875030000e-4 7.894225519380001e-4 7.993522652519999e-4 8.094068789849999e-4
8.195879641890000e-4 8.298971116790000e-4 8.403359322819998e-4 8.509060570839999e-4
8.616091376889999e-4 8.724468464739999e-4 8.834208768549999e-4 8.945329435440000e-4
9.057847828260000e-4 9.171781528229999e-4 9.287148337720000e-4 9.403966283040001e-4
9.522253617220001e-4 9.642028822900000e-4 9.763310615209999e-4 9.886117944660000e-4
1.001047000010000e-3 1.013638621190000e-3 1.026388625470000e-3 1.039299005060000e-3
1.052371777230000e-3 1.065608984630000e-3 1.079012695610000e-3 1.092585004510000e-3
1.106328032040000e-3 1.120243925580000e-3 1.134334859510000e-3 1.148603035580000e-3
1.163050683200000e-3 1.177680059860000e-3 1.192493451420000e-3 1.207493172510000e-3
1.222681566870000e-3 1.238061007700000e-3 1.253633898090000e-3 1.269402671330000e-3
1.285369791320000e-3 1.301537752950000e-3 1.317909082500000e-3 1.334486338030000e-3
1.351272109770000e-3 1.368269020520000e-3 1.385479726090000e-3 1.402906915680000e-3
1.420553312340000e-3 1.438421673340000e-3 1.456514790650000e-3 1.474835491360000e-3
1.493386638120000e-3 1.512171129580000e-3 1.531191900860000e-3 1.550451923980000e-3
1.569954208370000e-3 1.589701801300000e-3 1.609697788370000e-3 1.629945294000000e-3
1.650447481890000e-3 1.671207555570000e-3 1.692228758820000e-3 1.713514376260000e-3
1.735067733800000e-3 1.756892199210000e-3 1.778991182600000e-3 1.801368136980000e-3
1.824026558800000e-3 1.846969988480000e-3 1.870202010980000e-3 1.893726256340000e-3
1.917546400290000e-3 1.941666164760000e-3 1.966089318520000e-3 1.990819677740000e-3
2.015861106580000e-3 2.041217517830000e-3 2.066892873460000e-3 2.092891185310000e-3
2.119216515660000e-3 2.145872977910000e-3 2.172864737170000e-3 2.200196010970000e-3
2.227871069880000e-3 2.255894238170000e-3 2.284269894520000e-3 2.313002472700000e-3
2.342096462210000e-3 2.371556409070000e-3 2.401386916440000e-3 2.431592645390000e-3
2.462178315650000e-3 2.493148706280000e-3 2.524508656460000e-3 2.556263066260000e-3
2.588416897370000e-3 2.620975173880000e-3 2.653942983089999e-3 2.687325476300000e-3
2.721127869570000e-3 2.755355444620000e-3 2.790013549550000e-3 2.825107599790000e-3
2.860643078830000e-3 2.896625539170000e-3 2.933060603140000e-3 2.969953963810000e-3
3.007311385820000e-3 3.045138706350000e-3 3.083441836000000e-3 3.122226759720000e-3
3.161499537710000e-3 3.201266306440000e-3 3.241533279550000e-3 3.282306748820000e-3
3.323593085200000e-3 3.365398739770000e-3 3.407730244730000e-3 3.450594214480001e-3
3.493997346590000e-3 3.537946422900000e-3 3.582448310530000e-3 3.627509963000000e-3
3.673138421280000e-3 3.719340814920000e-3 3.766124363120000e-3 3.813496375920000e-3
3.861464255280000e-3 3.910035496300001e-3 3.959217688310001e-3 4.009018516140000e-3
4.059445761270000e-3 4.110507303060000e-3 4.162211119980000e-3 4.214565290850000e-3
4.267577996130000e-3 4.321257519150000e-3 4.375612247449999e-3 4.430650674060000e-3
4.486381398860000e-3 4.542813129880000e-3 4.599954684689999e-3 4.657814991780000e-3
4.716403091939999e-3 4.775728139680000e-3 4.835799404660000e-3 4.896626273130000e-3
4.958218249420000e-3 5.020584957390001e-3 5.083736141990000e-3 5.147681670690001e-3
5.212431535139999e-3 5.277995852610000e-3 5.344384867670000e-3 5.411608953750000e-3
5.479678614730000e-3 5.548604486640000e-3 5.618397339290000e-3 5.689068077960000e-3
5.760627745090000e-3 5.833087522030000e-3 5.906458730760001e-3 5.980752835680000e-3
6.055981445400000e-3 6.132156314540000e-3 6.209289345580000e-3 6.287392590720000e-3
6.366478253740000e-3 6.446558691939998e-3 6.527646418049999e-3 6.609754102190001e-3
6.692894573860000e-3 6.777080823920000e-3 6.862326006650000e-3 6.948643441780000e-3
7.036046616589999e-3 7.124549187990001e-3 7.214164984700000e-3 7.304908009370001e-3
7.396792440780001e-3 7.489832636050000e-3 7.584043132910000e-3 7.679438651940000e-3
7.776034098880000e-3 7.873844566970001e-3 7.972885339300001e-3 8.073171891170000e-3
8.174719892590000e-3 8.277545210610000e-3 8.381663911920000e-3 8.487092265270000e-3
8.593846744049999e-3 8.701944028860000e-3 8.811401010139999e-3 8.922234790750000e-3
9.034462688700000e-3 9.148102239830001e-3 9.263171200540000e-3 9.379687550600002e-3
9.497669495920000e-3 9.617135471419999e-3 9.738104143909998e-3 9.860594414980001e-3
9.984625423990000e-3 1.011021655100000e-2 1.023738742000000e-2 1.036615790160000e-2
1.049654811640000e-2 1.062857843820000e-2 1.076226949700000e-2 1.089764218240000e-2
1.103471764650000e-2 1.117351730770000e-2 1.131406285360000e-2 1.145637624500000e-2
1.160047971840000e-2 1.174639579040000e-2 1.189414726060000e-2 1.204375721560000e-2
1.219524903210000e-2 1.234864638100000e-2 1.250397323110000e-2 1.266125385250000e-2
1.282051282050000e-2 1.298177501980000e-2 1.314506564770000e-2 1.331041021900000e-2
1.347783456890000e-2 1.364736485790000e-2 1.381902757540000e-2 1.399284954410000e-2
1.416885792400000e-2 1.434708021680000e-2 1.452754427010000e-2 1.471027828170000e-2
1.489531080420000e-2 1.508267074930000e-2 1.527238739250000e-2 1.546449037720000e-2
1.565900972000000e-2 1.585597581490000e-2 1.605541943840000e-2 1.625737175370000e-2
1.646186431650000e-2 1.666892907910000e-2 1.687859839570000e-2 1.709090502770000e-2
1.730588214840000e-2 1.752356334840000e-2 1.774398264080000e-2 1.796717446660000e-2
1.819317369990000e-2 1.842201565370000e-2 1.865373608480000e-2 1.888837120020000e-2
1.912595766210000e-2 1.936653259370000e-2 1.961013358540000e-2 1.985679870040000e-2
2.010656648060000e-2 2.035947595280000e-2 2.061556663440000e-2 2.087487854030000e-2
2.113745218850000e-2 2.140332860650000e-2 2.167254933820000e-2 2.194515644980000e-2
2.222119253680000e-2 2.250070073030000e-2 2.278372470400000e-2 2.307030868110000e-2
2.336049744090000e-2 2.365433632590000e-2 2.395187124910000e-2 2.425314870090000e-2
2.455821575660000e-2 2.486712008340000e-2 2.517990994830000e-2 2.549663422540000e-2
2.581734240350000e-2 2.614208459380000e-2 2.647091153800000e-2 2.680387461600000e-2
2.714102585400000e-2 2.748241793250000e-2 2.782810419470000e-2 2.817813865470000e-2
2.853257600630000e-2 2.889147163090000e-2 2.925488160680000e-2 2.962286271740000e-2
2.999547246060001e-2 3.037276905740000e-2 3.075481146110000e-2 3.114165936670000e-2
3.153337322000000e-2 3.193001422690000e-2 3.233164436360000e-2 3.273832638540000e-2
3.315012383740000e-2 3.356710106360000e-2 3.398932321769999e-2 3.441685627270000e-2
3.484976703150000e-2 3.528812313730000e-2 3.573199308420000e-2 3.618144622760000e-2
3.663655279570000e-2 3.709738389960000e-2 3.756401154530000e-2 3.803650864420000e-2
3.851494902500000e-2 3.899940744490000e-2 3.948995960150000e-2 3.998668214470000e-2
4.048965268830001e-2 4.099894982260000e-2 4.151465312610000e-2 4.203684317870000e-2
4.256560157350000e-2 4.310101093020000e-2 4.364315490760000e-2 4.419211821670000e-2
4.474798663410001e-2 4.531084701550000e-2 4.588078730900000e-2 4.645789656880000e-2
4.704226496950001e-2 4.763398381980000e-2 4.823314557690000e-2 4.883984386120000e-2
4.945417347049999e-2 5.007623039500000e-2 5.070611183230000e-2 5.134391620280000e-2
5.198974316470000e-2 5.264369362969999e-2 5.330586977889999e-2 5.397637507880000e-2
5.465531429700000e-2 5.534279351940000e-2 5.603892016580000e-2 5.674380300750000e-2
5.745755218379999e-2 5.818027921960000e-2 5.891209704240000e-2 5.965312000020000e-2
6.040346387940000e-2 6.116324592269999e-2 6.193258484760000e-2 6.271160086490001e-2
6.350041569740000e-2 6.429915259900000e-2 6.510793637410001e-2 6.592689339670001e-2
6.675615163049999e-2 6.759584064880000e-2 6.844609165480000e-2 6.930703750180001e-2
7.017881271449999e-2 7.106155350940000e-2 7.195539781660000e-2 7.286048530110000e-2
7.377695738470001e-2 7.470495726799999e-2 7.564462995280000e-2 7.659612226500000e-2
7.755958287710001e-2 7.853516233180001e-2 7.952301306539999e-2 8.052328943170000e-2
8.153614772570000e-2 8.256174620860001e-2 8.360024513239999e-2 8.465180676460001e-2
8.571659541380001e-2 8.679477745550001e-2 8.788652135770000e-2 8.899199770770000e-2
9.011137923829999e-2 9.124484085530000e-2 9.239255966440002e-2 9.355471499880000e-2
9.473148844779999e-2 9.592306388459999e-2 9.712962749530000e-2 9.835136780799999e-2
9.958847572189999e-2 1.008411445380000e-1 1.021095699880000e-1 1.033939502660000e-1
1.046944860590000e-1 1.060113805780000e-1 1.073448395910000e-1 1.086950714540000e-1
1.100622871430000e-1 1.114467002890000e-1 1.128485272080000e-1 1.142679869380000e-1
1.157053012750000e-1 1.171606948000000e-1 1.186343949220000e-1 1.201266319090000e-1
1.216376389280000e-1 1.231676520740000e-1 1.247169104170000e-1 1.262856560310000e-1
1.278741340360000e-1 1.294825926340000e-1 1.311112831510000e-1 1.327604600730000e-1
1.344303810860000e-1 1.361213071200000e-1 1.378335023860000e-1 1.395672344160000e-1
1.413227741110000e-1 1.431003957770000e-1 1.449003771700000e-1 1.467229995430000e-1
1.485685476820000e-1 1.504373099600000e-1 1.523295783730000e-1 1.542456485930000e-1
1.561858200090000e-1 1.581503957770000e-1 1.601396828670000e-1 1.621539921070000e-1
1.641936382390000e-1 1.662589399610000e-1 1.683502199810000e-1 1.704678050650000e-1
1.726120260900000e-1 1.747832180950000e-1 1.769817203340000e-1 1.792078763270000e-1
1.814620339150000e-1 1.837445453150000e-1 1.860557671740000e-1 1.883960606250000e-1
1.907657913450000e-1 1.931653296070000e-1 1.955950503440000e-1 1.980553332070000e-1
2.005465626180000e-1 2.030691278370000e-1 2.056234230210000e-1 2.082098472830000e-1
2.108288047580000e-1 2.134807046620000e-1 2.161659613600000e-1 2.188849944300000e-1
2.216382287250000e-1 2.244260944450000e-1 2.272490271980000e-1 2.301074680740000e-1
2.330018637110000e-1 2.359326663620000e-1 2.389003339730000e-1 2.419053302470000e-1
2.449481247210000e-1 2.480291928380000e-1 2.511490160200000e-1 2.543080817480000e-1
2.575068836310000e-1 2.607459214880000e-1 2.640257014260000e-1 2.673467359160000e-1
2.707095438790000e-1 2.741146507580000e-1 2.775625886090000e-1 2.810538961790000e-1
2.845891189930000e-1 2.881688094350000e-1 2.917935268400000e-1 2.954638375770000e-1
2.991803151400000e-1 3.029435402360000e-1 3.067541008770000e-1 3.106125924690000e-1
3.145196179120000e-1 3.184757876840000e-1 3.224817199460000e-1 3.265380406330000e-1
3.306453835540000e-1 3.348043904880000e-1 3.390157112890000e-1 3.432800039850000e-1
3.475979348800000e-1 3.519701786600000e-1 3.563974184960000e-1 3.608803461540000e-1
3.654196621000000e-1 3.700160756110000e-1 3.746703048880000e-1 3.793830771610000e-1
3.841551288130000e-1 3.889872054850000e-1 3.938800621990000e-1 3.988344634740000e-1
4.038511834450000e-1 4.089310059860000e-1 4.140747248280000e-1 4.192831436890000e-1
4.245570763930000e-1 4.298973470050000e-1 4.353047899520000e-1 4.407802501580000e-1
4.463245831740000e-1 4.519386553149999e-1 4.576233437900000e-1 4.633795368440000e-1
4.692081338930000e-1 4.751100456680001e-1 4.810861943540000e-1 4.871375137360000e-1
4.932649493470000e-1 4.994694586090000e-1 5.057520109900000e-1 5.121135881520001e-1
5.185551841030001e-1 5.250778053579999e-1 5.316824710880001e-1 5.383702132850000e-1
5.451420769239999e-1 5.519991201210001e-1 5.589424143040000e-1 5.659730443760001e-1
5.730921088880000e-1 5.803007202080001e-1 5.876000046970001e-1 5.949911028810000e-1
6.024751696360000e-1 6.100533743610001e-1 6.177269011680000e-1 6.254969490600000e-1
6.333647321219999e-1 6.413314797130000e-1 6.493984366520000e-1 6.575668634179999e-1
6.658380363439999e-1 6.742132478179999e-1 6.826938064840000e-1 6.912810374460000e-1
6.999762824759999e-1 7.087809002249999e-1 7.176962664310000e-1 7.267237741400000e-1
7.358648339160000e-1 7.451208740700000e-1 7.544933408760000e-1 7.639836988020000e-1
7.735934307350000e-1 7.833240382160001e-1 7.931770416710000e-1 8.031539806530001e-1
8.132564140789999e-1 8.234859204730000e-1 8.338440982180000e-1 8.443325658000001e-1
8.549529620630000e-1 8.657069464659999e-1 8.765961993399999e-1 8.876224221550000e-1
8.987873377780000e-1 9.100926907520000e-1 9.215402475599999e-1 9.331317969060001e-1
9.448691499950000e-1 9.567541408100000e-1 9.687886264070000e-1 9.809744871970000e-1
9.933136272470000e-1 1.005807974570000e0 1.018459481440000e0 1.031270124670000e0
1.044241905960000e0 1.057376852170000e0 1.070677015670000e0 1.084144474620000e0
1.097781333360000e0 1.111589722670000e0 1.125571800130000e0 1.139729750470000e0
1.154065785900000e0 1.168582146470000e0 1.183281100370000e0 1.198164944350000e0
1.213236004040000e0 1.228496634320000e0 1.243949219700000e0 1.259596174680000e0
1.275439944130000e0 1.291483003660000e0 1.307727860030000e0 1.324177051550000e0
1.340833148420000e0 1.357698753210000e0 1.374776501180000e0 1.392069060780000e0
1.409579134000000e0 1.427309456830000e0 1.445262799670000e0 1.463441967760000e0
1.481849801630000e0 1.500489177550000e0 1.519363007960000e0 1.538474241930000e0
1.557825865620000e0 1.577420902780000e0 1.597262415170000e0 1.617353503060000e0
1.637697305720000e0 1.658297001920000e0 1.679155810400000e0 1.700276990390000e0
1.721663842110000e0 1.743319707320000e0 1.765247969780000e0 1.787452055830000e0
1.809935434890000e0 1.832701620050000e0 1.855754168570000e0 1.879096682450000e0
1.902732809010000e0 1.926666241440000e0 1.950900719390000e0 1.975440029550000e0
2.000288006240000e0 2.025448531990000e0 2.050925538200000e0 2.076723005690000e0
2.102844965380000e0 2.129295498880000e0 2.156078739130000e0 2.183198871060000e0
2.210660132270000e0 2.238466813610000e0 2.266623259950000e0 2.295133870790000e0
2.324003100960000e0 2.353235461350000e0 2.382835519560000e0 2.412807900680000e0
2.443157287930000e0 2.473888423480000e0 2.505006109140000e0 2.536515207090000e0
2.568420640700000e0 2.600727395270000e0 2.633440518780000e0 2.666565122730000e0
2.700106382910000e0 2.734069540200000e0 2.768459901420000e0 2.803282840130000e0
2.838543797490000e0 2.874248283090000e0 2.910401875840000e0 2.947010224800000e0
2.984079050100000e0 3.021614143820000e0 3.059621370910000e0 3.098106670050000e0
3.137076054670000e0 3.176535613800000e0 3.216491513090000e0 3.256949995720000e0
3.297917383410000e0 3.339400077400000e0 3.381404559450000e0 3.423937392840000e0
3.467005223410000e0 3.510614780610000e0 3.554772878500000e0 3.599486416890000e0
3.644762382360000e0 3.690607849360000e0 3.737029981350000e0 3.784036031880000e0
3.831633345730000e0 3.879829360090000e0 3.928631605680000e0 3.978047707960000e0
4.028085388280000e0 4.078752465140000e0 4.130056855370000e0 4.182006575380000e0
4.234609742430000e0 4.287874575870000e0 4.341809398430000e0 4.396422637550000e0
4.451722826650000e0 4.507718606500000e0 4.564418726550000e0 4.621832046310000e0
4.679967536730000e0 4.738834281610000e0 4.798441478980000e0 4.858798442590000e0
4.919914603350000e0 4.981799510770000e0 5.044462834500000e0 5.107914365810000e0
5.172164019140000e0 5.237221833610000e0 5.303097974650000e0 5.369802735540000e0
5.437346539040000e0 5.505739938990000e0 5.574993622000000e0 5.645118409120000e0
5.716125257470000e0 5.788025262020000e0 5.860829657290000e0 5.934549819130000e0
6.009197266440000e0 6.084783663060000e0 6.161320819500000e0 6.238820694850000e0
6.317295398630000e0 6.396757192670000e0 6.477218493040000e0 6.558691871970000e0
6.641190059850000e0 6.724725947190000e0 6.809312586640000e0 6.894963195040000e0
6.981691155460000e0 7.069510019330000e0 7.158433508530000e0 7.248475517520000e0
7.339650115560000e0 7.431971548860000e0 7.525454242840000e0 7.620112804360000e0
7.715962024000000e0 7.813016878410000e0 7.911292532600000e0 8.010804342349999e0
8.111567856570000e0 8.213598819770001e0 8.316913174500000e0 8.421527063830000e0
8.527456833900001e0 8.634719036450001e0 8.743330431420000e0 8.853307989550000e0
8.964668895080001e0 9.077430548350000e0 9.191610568620000e0 9.307226796729999e0
9.424297297970000e0 9.542840364840000e0 9.662874519930000e0 9.784418518820001e0
9.907491353010000e0 1.003211225290000e1 1.015830069070000e1 1.028607638370000e1
1.041545929700000e1 1.054646964710000e1 1.067912790440000e1 1.081345479730000e1
1.094947131440000e1 1.108719870880000e1 1.122665850040000e1 1.136787248040000e1
1.151086271350000e1 1.165565154230000e1 1.180226159040000e1 1.195071576590000e1
1.210103726500000e1 1.225324957580000e1 1.240737648190000e1 1.256344206570000e1
1.272147071290000e1 1.288148711580000e1 1.304351627720000e1 1.320758351460000e1
1.337371446390000e1 1.354193508320000e1 1.371227165740000e1 1.388475080190000e1
1.405939946700000e1 1.423624494190000e1 1.441531485900000e1 1.459663719840000e1
1.478024029210000e1 1.496615282840000e1 1.515440385650000e1 1.534502279100000e1
1.553803941660000e1 1.573348389240000e1 1.593138675710000e1 1.613177893340000e1
1.633469173300000e1 1.654015686140000e1 1.674820642290000e1 1.695887292580000e1
1.717218928710000e1 1.738818883790000e1 1.760690532860000e1 1.782837293400000e1
1.805262625900000e1 1.827970034360000e1 1.850963066860000e1 1.874245316100000e1
1.897820419980000e1 1.921692062170000e1 1.945863972650000e1 1.970339928330000e1
1.995123753640000e1 2.020219321090000e1 2.045630551920000e1 2.071361416690000e1
2.097415935890000e1 2.123798180600000e1 2.150512273100000e1 2.177562387510000e1
2.204952750480000e1 2.232687641800000e1 2.260771395110000e1 2.289208398550000e1
2.318003095460000e1 2.347159985060000e1 2.376683623190000e1 2.406578622980000e1
2.436849655560000e1 2.467501450870000e1 2.498538798290000e1 2.529966547490000e1
2.561789609110000e1 2.594012955560000e1 2.626641621820000e1 2.659680706180000e1
2.693135371050000e1 2.727010843810000e1 2.761312417560000e1 2.796045451990000e1
2.831215374210000e1 2.866827679600000e1 2.902887932640000e1 2.939401767830000e1
2.976374890530000e1 3.013813077850000e1 3.051722179610000e1 3.090108119160000e1
3.128976894390000e1 3.168334578630000e1 3.208187321590001e1 3.248541350350000e1
3.289402970300000e1 3.330778566160000e1 3.372674602950000e1 3.415097627000000e1
3.458054267010001e1 3.501551235030000e1 3.545595327560001e1 3.590193426570000e1
3.635352500610000e1 3.681079605870000e1 3.727381887310000e1 3.774266579750000e1
3.821741009030000e1 3.869812593110000e1 3.918488843280000e1 3.967777365310000e1
4.017685860630000e1 4.068222127530000e1 4.119394062420001e1 4.171209661010000e1
4.223677019590000e1 4.276804336310000e1 4.330599912400000e1 4.385072153540000e1
4.440229571130000e1 4.496080783620000e1 4.552634517880001e1 4.609899610540000e1
4.667885009400000e1 4.726599774790000e1 4.786053081010000e1 4.846254217760000e1
4.907212591590000e1 4.968937727370001e1 5.031439269780001e1 5.094726984820000e1
5.158810761310001e1 5.223700612480000e1 5.289406677500001e1 5.355939223070000e1
5.423308645040001e1 5.491525470020001e1 5.560600357030000e1 5.630544099160001e1
5.701367625260001e1 5.773082001650000e1 5.845698433840000e1 5.919228268310000e1
5.993682994250000e1 6.069074245340000e1 6.145413801630000e1 6.222713591330001e1
6.300985692690000e1 6.380242335880000e1 6.460495904920001e1 6.541758939590000e1
6.624044137410000e1 6.707364355590001e1 6.791732613100000e1 6.877162092650001e1
6.963666142770001e1 7.051258279900001e1 7.139952190470000e1 7.229761733100000e1
7.320700940710001e1 7.412784022740000e1 7.506025367350000e1 7.600439543690000e1
7.696041304180000e1 7.792845586780000e1 7.890867517360000e1 7.990122412040001e1
8.090625779600002e1 8.192393323899999e1 8.295440946330000e1 8.399784748280000e1
8.505441033690001e1 8.612426311560000e1 8.720757298570000e1 8.830450921650000e1
8.941524320650000e1 9.053994851020001e1 9.167880086500000e1 9.283197821900002e1
9.399966075840000e1 9.518203093610001e1 9.637927349980000e1 9.759157552100000e1
9.881912642450001e1
</PP_R>
<PP_RAB>
1.461349303770000e-7 1.479730815170000e-7 1.498343537530000e-7 1.517190379100000e-7
1.536274284770000e-7 1.555598236410000e-7 1.575165253440000e-7 1.594978393250000e-7
1.615040751680000e-7 1.635355463510000e-7 1.655925702960000e-7 1.676754684170001e-7
1.697845661710000e-7 1.719201931090000e-7 1.740826829270000e-7 1.762723735180000e-7
1.784896070260000e-7 1.807347298990000e-7 1.830080929410000e-7 1.853100513690000e-7
1.876409648700000e-7 1.900011976540000e-7 1.923911185110000e-7 1.948111008720000e-7
1.972615228640000e-7 1.997427673710000e-7 2.022552220900000e-7 2.047992796000000e-7
2.073753374140001e-7 2.099837980470000e-7 2.126250690750001e-7 2.152995632030000e-7
2.180076983250000e-7 2.207498975940001e-7 2.235265894830000e-7 2.263382078570000e-7
2.291851920370000e-7 2.320679868680000e-7 2.349870427950000e-7 2.379428159260000e-7
2.409357681050000e-7 2.439663669889999e-7 2.470350861140000e-7 2.501424049730000e-7
2.532888090920000e-7 2.564747901030000e-7 2.597008458220000e-7 2.629674803260000e-7
2.662752040340000e-7 2.696245337850000e-7 2.730159929170000e-7 2.764501113540000e-7
2.799274256830000e-7 2.834484792420000e-7 2.870138222020000e-7 2.906240116560000e-7
2.942796117030000e-7 2.979811935390000e-7 3.017293355420000e-7 3.055246233670000e-7
3.093676500359999e-7 3.132590160310000e-7 3.171993293840000e-7 3.211892057769999e-7
3.252292686370000e-7 3.293201492319999e-7 3.334624867710000e-7 3.376569285010000e-7
3.419041298140000e-7 3.462047543420000e-7 3.505594740680000e-7 3.549689694240000e-7
3.594339294050000e-7 3.639550516680000e-7 3.685330426480000e-7 3.731686176659999e-7
3.778625010400000e-7 3.826154261980000e-7 3.874281357959999e-7 3.923013818270000e-7
3.972359257480001e-7 4.022325385899999e-7 4.072920010850001e-7 4.124151037830000e-7
4.176026471810000e-7 4.228554418420001e-7 4.281743085259999e-7 4.335600783159999e-7
4.390135927510002e-7 4.445357039530000e-7 4.501272747640000e-7 4.557891788759999e-7
4.615223009760000e-7 4.673275368730000e-7 4.732057936500000e-7 4.791579897939998e-7